
 Primary working directories    : /scratch/kee
 Secondary working directories  : /scratch/kee
 Wavefunction directory         : /home/kee/wfu/
 Main file repository           : /scratch/kee/

 ARCHNAME  : Linux/x86_64
 FC        : /opt/intel/composer_xe_2015.0.090/bin/intel64/ifort
 FCVERSION : 15.0.0
 BLASLIB   : -L/opt/intel/mkl/lib/intel64 -lmkl_intel_ilp64 -lmkl_sequential -lmkl_core
 id        : emory

 Nodes     nprocs
 node23       3
 Number of processes for MPI-2 version of Molpro:   nprocs(total)=    4   nprocs(compute)=    3   nprocs(helper)=    1
 ga_uses_ma=false, calling ma_init with nominal heap.
 GA-space will be limited to   8.0 MW (determined by -G option)

 Using customized tuning parameters: mindgm=7; mindgv=32; mindgc=1; mindgr=1; noblas=0; mincuda=1000; minvec=7
 default implementation of scratch files=sf  

 ***,co2h2o
 memory,100,m
 basis avtz
 geomtype = xyz
 geometry = {
 6
       0.00000000
 O     0.02747900    1.16001200    0.00000000
 O    -0.00936500   -1.16396300    0.00000000
 O     2.32534799   -0.01222429    0.00000000
 H     2.71444299    0.42904971    0.75746400
 H     2.71444299    0.42904971   -0.75746400
 C     0.02536600   -0.00312200    0.00000000
 }
 hf
 ccsd(t)-f12
 ---

 Variables initialized (665), CPU time= 0.01 sec
 Commands  initialized (462), CPU time= 0.00 sec, 486 directives.
 Default parameters read. Elapsed time= 0.04 sec

 Checking input...
 Passed
1


                                         ***  PROGRAM SYSTEM MOLPRO  ***
                         Copyright, University College Cardiff Consultants Limited, 2008

                                    Version 2010.1 linked 9 Dec 2014 15:06:28 


 **********************************************************************************************************************************
 LABEL *   co2h2o                                                                        
 Linux-2.6.32-504.el6.x86_64/node23(x86_64) 64 bit mpp version                           DATE: 14-Dec-16          TIME: 23:56:20  
 **********************************************************************************************************************************

 Patch level:      19
 **********************************************************************************************************************************

 Variable memory set to  100000000 words,  buffer space   230000 words

 SETTING BASIS          =    AVTZ
 SETTING GEOMTYPE       =    XYZ

Geometry recognized as XYZ



 Recomputing integrals since basis changed


 Using spherical harmonics

 Library entry O      S aug-cc-pVTZ          selected for orbital group  1
 Library entry O      P aug-cc-pVTZ          selected for orbital group  1
 Library entry O      D aug-cc-pVTZ          selected for orbital group  1
 Library entry O      F aug-cc-pVTZ          selected for orbital group  1
 Library entry H      S aug-cc-pVTZ          selected for orbital group  2
 Library entry H      P aug-cc-pVTZ          selected for orbital group  2
 Library entry H      D aug-cc-pVTZ          selected for orbital group  2
 Library entry C      S aug-cc-pVTZ          selected for orbital group  3
 Library entry C      P aug-cc-pVTZ          selected for orbital group  3
 Library entry C      D aug-cc-pVTZ          selected for orbital group  3
 Library entry C      F aug-cc-pVTZ          selected for orbital group  3

1PROGRAM * SEWARD (Integral evaluation for generally contracted gaussian basis sets)     Author: Roland Lindh, 1990

 Geometry written to block  1 of record 700


 Point group  Cs  



 ATOMIC COORDINATES

 NR  ATOM    CHARGE       X              Y              Z

   1  O       8.00    0.051927784    2.192104989    0.000000000
   2  O       8.00   -0.017697285   -2.199571297    0.000000000
   3  O       8.00    4.394270861   -0.023100560    0.000000000
   4  H       1.00    5.129553850    0.810786449    1.431399514
   5  H       1.00    5.129553850    0.810786449   -1.431399514
   6  C       6.00    0.047934793   -0.005899725    0.000000000

 Bond lengths in Bohr (Angstrom)

 1-6  2.198008341  2-6  2.194653170  3-4  1.812432947  3-5  1.812432947
     (1.163135919)     (1.161360439)     (0.959098208)     (0.959098208)

 Bond angles

  1-6-2  178.39037465   4-3-5  104.32746287

 NUCLEAR CHARGE:                   32
 NUMBER OF PRIMITIVE AOS:         322
 NUMBER OF SYMMETRY AOS:          282
 NUMBER OF CONTRACTIONS:          230   ( 143A'  +  87A"  )
 NUMBER OF CORE ORBITALS:           4   (   4A'  +   0A"  )
 NUMBER OF VALENCE ORBITALS:       18   (  13A'  +   5A"  )


 NUCLEAR REPULSION ENERGY  112.42886333


 Eigenvalues of metric

         1 0.195E-03 0.265E-03 0.326E-03 0.631E-03 0.771E-03 0.832E-03 0.131E-02 0.167E-02
         2 0.331E-03 0.136E-02 0.291E-02 0.342E-02 0.413E-02 0.604E-02 0.763E-02 0.989E-02


 Contracted 2-electron integrals neglected if value below      1.0D-11
 AO integral compression algorithm  1   Integral accuracy      1.0D-11

     821.821 MB (compressed) written to integral file ( 48.4%)

     Node minimum: 228.065 MB, node maximum: 322.961 MB


 NUMBER OF SORTED TWO-ELECTRON INTEGRALS:   59530350.     BUFFER LENGTH:  32768
 NUMBER OF SEGMENTS:   4  SEGMENT LENGTH:   15999984      RECORD LENGTH: 524288

 Memory used in sort:      16.56 MW

 SORT1 READ   212043035. AND WROTE    57507628. INTEGRALS IN    166 RECORDS. CPU TIME:     3.73 SEC, REAL TIME:     4.38 SEC
 SORT2 READ   172854500. AND WROTE   178576926. INTEGRALS IN   3099 RECORDS. CPU TIME:     1.15 SEC, REAL TIME:     1.81 SEC

 Node minimum:    59520934.  Node maximum:    59530350. integrals

 OPERATOR DM      FOR CENTER  0  COORDINATES:    0.000000    0.000000    0.000000


 **********************************************************************************************************************************
 DATASETS  * FILE   NREC   LENGTH (MB)   RECORD NAMES
              1      18        3.71       500      610      700      900      950      970     1000      129      960     1100   
                                          VAR    BASINP    GEOM    SYMINP    ZMAT    AOBASIS   BASIS     P2S    ABASIS      S 
                                         1400     1410     1200     1210     1080     1600     1650     1700   
                                           T        V       H0       H01     AOSYM     SMH    MOLCAS    OPER   

 PROGRAMS   *        TOTAL       INT
 CPU TIMES  *        11.57     11.46
 REAL TIME  *        13.41 SEC
 DISK USED  *         2.89 GB      
 GA USED    *         0.00 MB       (max)       0.00 MB       (current)
 **********************************************************************************************************************************

1PROGRAM * RHF-SCF (CLOSED SHELL)       Authors: W. Meyer, H.-J. Werner


 NUMBER OF ELECTRONS:      16+   16-
 CONVERGENCE THRESHOLDS:    1.00E-05 (Density)    1.00E-07 (Energy)
 MAX. NUMBER OF ITERATIONS:       60
 INTERPOLATION TYPE:            DIIS
 INTERPOLATION STEPS:              2 (START)      1 (STEP)
 LEVEL SHIFTS:                  0.00 (CLOSED)  0.00 (OPEN) 



 Orbital guess generated from atomic densities. Full valence occupancy:   17   5

 Molecular orbital dump at record        2100.2

 Initial alpha occupancy:  13   3
 Initial beta  occupancy:  13   3
 Wave function symmetry:    1

 ITERATION    DDIFF          GRAD             ENERGY        2-EL.EN.            DIPOLE MOMENTS         DIIS
    1      0.000D+00      0.000D+00      -263.65672792    421.335448    0.94690    0.84408    0.00000    0
    2      0.000D+00      0.627D-02      -263.72046128    416.792673    0.77963    0.44939    0.00000    1
    3      0.102D-01      0.413D-02      -263.75903178    419.052623    0.77596    0.56106    0.00000    2
    4      0.406D-02      0.427D-03      -263.75957936    418.925133    0.76718    0.55282    0.00000    3
    5      0.522D-03      0.140D-03      -263.75964940    418.889256    0.76204    0.55711    0.00000    4
    6      0.204D-03      0.560D-04      -263.75965935    418.908806    0.76153    0.55280    0.00000    5
    7      0.688D-04      0.136D-04      -263.75966026    418.902536    0.76117    0.55432    0.00000    6
    8      0.242D-04      0.563D-05      -263.75966037    418.901925    0.76111    0.55340    0.00000    7
    9      0.713D-05      0.165D-05      -263.75966038    418.902787    0.76113    0.55355    0.00000    8
   10      0.282D-05      0.489D-06      -263.75966038    418.902529    0.76112    0.55351    0.00000    0

 Final occupancy:  13   3

 !RHF STATE 1.1 Energy               -263.759660380533
 Nuclear energy                       112.42886333
 One-electron energy                 -585.63978803
 Two-electron energy                  209.45126433
 Virial quotient                       -1.00131313
 !RHF STATE 1.1 Dipole moment           0.76112128     0.55350886     0.00000000
 Dipole moment /Debye                   1.93445063     1.40678706     0.00000000

 Orbital energies:

         1.1          2.1          3.1          4.1          5.1          6.1          7.1          8.1          9.1         10.1
    -20.620880   -20.620595   -20.581988   -11.436118    -1.503369    -1.449482    -1.374839    -0.775266    -0.716784    -0.705701

        11.1         12.1         13.1         14.1         15.1
     -0.599469    -0.536838    -0.506096     0.024058     0.067851

         1.2          2.2          3.2          4.2          5.2
     -0.738723    -0.686030    -0.516452     0.044906     0.093587


 **********************************************************************************************************************************
 DATASETS  * FILE   NREC   LENGTH (MB)   RECORD NAMES
              1      18        3.72       500      610      700      900      950      970     1000      129      960     1100   
                                          VAR    BASINP    GEOM    SYMINP    ZMAT    AOBASIS   BASIS     P2S    ABASIS      S 
                                         1400     1410     1200     1210     1080     1600     1650     1700   
                                           T        V       H0       H01     AOSYM     SMH    MOLCAS    OPER   

              2       3        0.94       700     1000     2100   
                                         GEOM     BASIS     RHF  

 PROGRAMS   *        TOTAL        HF       INT
 CPU TIMES  *        16.25      4.67     11.46
 REAL TIME  *        18.55 SEC
 DISK USED  *         2.92 GB      
 SF USED    *         0.11 MB      
 GA USED    *         0.00 MB       (max)       0.00 MB       (current)
 **********************************************************************************************************************************


1PROGRAM * CCSD (Closed-shell coupled cluster)     Authors: C. Hampel, H.-J. Werner, 1991, M. Deegan, P.J. Knowles, 1992

                                  CCSD-F12 implementation by  H.-J. Werner, 2007

                   Density fitting integral evaluation by F.R. Manby, 2003,2007, G. Knizia, 2010

 Basis set CC-PVTZ/JKFIT generated.      Number of basis functions:   376 
 Basis set AUG-CC-PVTZ/MP2FIT generated. Number of basis functions:   516 

 Convergence thresholds:  THRVAR = 1.00D-08  THRDEN = 1.00D-06

 CCSD(T)     terms to be evaluated (factor= 1.000)


 Number of core orbitals:           4 (   4   0 )
 Number of closed-shell orbitals:  12 (   9   3 )
 Number of external orbitals:     214 ( 130  84 )

 Molecular orbitals read from record     2100.2  Type=RHF/CANONICAL (state 1.1)

 MP2-F12 correlation treatment (H.-J. Werner, 2006)
 --------------------------------------------------

 Using MP2-F12 with ansatz 3C(FIX)

 Using projected zeroth-order Hamiltonian (+Z)

 FOCKRIB=T FOCKRIC=T FOCKRIP=T CABSP=T CABSA=T CABSK=T CABSF=T GBC=F EBC=F DMAT=T NOFIK=T NOPAO=1 SOLVE=-1  USEPAO=0
 EXCH_A= T EXCH_B= F EXCH_C= F EXCH_P= F
 
 Geminal basis:    OPTFULL  GEM_TYPE=SLATER  BETA=1.0  NGEM=6

 Optimizing Gaussian exponents for each gem_beta

 Geminal optimization for beta= 1.0000
 Weight function:   m=0, omega= 1.4646

 Augmented Hessian optimization of geminal fit. Trust ratio= 0.40000
 Convergence reached after   2 iterations. Final gradient= 8.24D-16, Step= 4.32D-06, Delta= 1.28D-09
 
 Alpha:                 0.19532     0.81920     2.85917     9.50073    35.69989   197.79328
 Coeff:                 0.27070     0.30552     0.18297     0.10986     0.06810     0.04224
 

 Symmetry turned off. Reference energy:       -263.759660380532

 All pairs explicitly correlated. Number of r12-pairs:           78
 
 AO(A)-basis ORBITAL           loaded. Number of functions:     230
 RI(R)-basis CC-PVTZ/JKFIT     loaded. Number of functions:     376
 DF-basis CC-PVTZ/JKFIT        loaded. Number of functions:     376

 Screening thresholds:   THRAO=  1.00D-10  THRMO=  1.00D-09  THRPROD=  1.00D-09
                         THRSW=  1.00D-05  THROV=  1.00D-12  THRF12=   1.00D-08

 CPU time for Fock operators                      1.11 sec
 
 Construction of ABS:
 Smallest eigenvalue of S          2.38E-04  (threshold= 1.00E-08)
 Ratio eigmin/eigmax               1.70E-06  (threshold= 1.00E-09)
 Smallest eigenvalue of S kept     2.38E-04  (threshold= 2.38E-04, 0 functions deleted, 376 kept)
 
 Construction of CABS:
 Smallest eigenvalue of S          2.23E-08  (threshold= 1.00E-08)
 Ratio eigmin/eigmax               2.23E-08  (threshold= 1.00E-09)
 Smallest eigenvalue of S kept     2.23E-08  (threshold= 2.23E-08, 0 functions deleted, 376 kept)
 
 CPU time for CABS singles                        0.18 sec

 CABS-singles contribution of  -0.01593306 patched into reference energy.
 New reference energy        -263.77559344
 
 AO(A)-basis ORBITAL           loaded. Number of functions:     230
 RI(R)-basis CC-PVTZ/JKFIT     loaded. Number of functions:     376
 DF-basis AUG-CC-PVTZ/MP2FIT   loaded. Number of functions:     516

 Screening thresholds:   THRAO=  1.00D-10  THRMO=  1.00D-09  THRPROD=  1.00D-09
                         THRSW=  1.00D-05  THROV=  1.00D-12  THRF12=   1.00D-08

 CPU time for 3-index integral evaluation         3.56 sec
 CPU time for first  half transformation          0.32 sec ( 9681.0 MFLOP/sec)
 CPU time for second half transformation          0.04 sec ( 2892.5 MFLOP/sec)
 CPU time for sorting                             0.15 sec
 CPU time for fitting                             0.07 sec (24510.8 MFLOP/sec)
 CPU time for tilde quantities                    0.21 sec ( 9428.0 MFLOP/sec)
 CPU time for assembly                            1.02 sec (27509.1 MFLOP/sec)
 CPU time for tranop_f12                          1.15 sec (26468.8 MFLOP/sec)
 CPU time for f12 integrals (total)               8.96 sec
 F12-matrices built in  3 passes.
 F12-matrices built in  3 passes.
 F12-matrices built in  3 passes.
 F12-matrices built in  3 passes.
 FC-matrix built in  3 passes.
 CPU time for f12 matrices (total)                0.56 sec

 Diagonal F12 approximation with fixed coefficients:  TSING= 0.500,  TTRIP= 0.250 (scaled by -1/beta)

 DF-MP2-F12 energy corrections:
 ------------------------------
 Approx.                                    Singlet             Triplet             Total
 DF-MP2-F12/3*C(DX,FIX)                -0.097461501667     -0.017122786043     -0.114584287710
 DF-MP2-F12/3*C(FIX)                   -0.079822246185     -0.013606060867     -0.093428307051
 DF-MP2-F12/3C(FIX)                    -0.080191216985     -0.013655878049     -0.093847095034

 DF-MP2-F12 correlation energies:
 --------------------------------
 Approx.                                    Singlet             Triplet             Ecorr            Total Energy
 DF-MP2                                -0.538216484659     -0.346848312654     -0.885064797313   -264.660658233781
 DF-MP2-F12/3*C(DX,FIX)                -0.635677986326     -0.363971098697     -0.999649085022   -264.775242521490
 DF-MP2-F12/3*C(FIX)                   -0.618038730844     -0.360454373520     -0.978493104364   -264.754086540832
 DF-MP2-F12/3C(FIX)                    -0.618407701644     -0.360504190703     -0.978911892346   -264.754505328814

 SCS-DF-MP2 energies (F_SING= 1.20000  F_TRIP= 0.62222  F_PARALLEL= 0.33333):
 ----------------------------------------------------------------------------
 SCS-DF-MP2                            -0.861676509464   -264.637269945932
 SCS-DF-MP2-F12/3*C(DX,FIX)            -0.989284489447   -264.764877925915
 SCS-DF-MP2-F12/3*C(FIX)               -0.965929198314   -264.741522634782
 SCS-DF-MP2-F12/3C(FIX)                -0.966402960632   -264.741996397100

 Symmetry restored.
 Symmetry transformation completed.

 Number of N-1 electron functions:              12
 Number of N-2 electron functions:              78
 Number of singly external CSFs:              1422
 Number of doubly external CSFs:           1668984
 Total number of CSFs:                     1670407

 Pair and operator lists are different

 Length of J-op  integral file:             466.33 MB
 Length of K-op  integral file:             525.76 MB
 Length of 3-ext integral record:             0.00 MB

 Memory could be reduced to 76.19 Mwords without degradation in triples

 Integral transformation finished. Total CPU:   5.51 sec, npass=  1  Memory used:  26.50 MW

 Reference energy:                   -263.77559344

 Adding F12 terms to K(Cij), methodcc=6,  factor=1.0

 ITER.      SQ.NORM     CORR.ENERGY   TOTAL ENERGY   ENERGY CHANGE        DEN1      VAR(S)    VAR(P)  DIIS     TIME
   1      1.20183129    -0.86673239  -264.64232583     0.01833897     0.04687051  0.73D-02  0.55D-02  1  1    20.56
   2      1.21616593    -0.86258487  -264.63817831     0.00414752    -0.02021189  0.92D-04  0.59D-03  2  2    24.58
   3      1.22154482    -0.86271416  -264.63830759    -0.00012929    -0.00230010  0.14D-03  0.31D-04  3  3    27.96
   4      1.22439598    -0.86257969  -264.63817313     0.00013447    -0.00141786  0.86D-05  0.41D-05  4  4    32.32
   5      1.22546493    -0.86254322  -264.63813665     0.00003647    -0.00036887  0.80D-06  0.30D-06  5  5    35.51
   6      1.22564282    -0.86251549  -264.63810893     0.00002773    -0.00000806  0.64D-07  0.32D-07  6  6    38.87
   7      1.22568126    -0.86251235  -264.63810578     0.00000314    -0.00000709  0.98D-08  0.46D-08  6  2    42.13
   8      1.22568358    -0.86251195  -264.63810539     0.00000040     0.00000186  0.85D-09  0.52D-09  6  1    45.40
   9      1.22568441    -0.86251210  -264.63810554    -0.00000015     0.00000090  0.14D-09  0.42D-10  6  4    48.66

 Norm of t1 vector:      0.10770476      S-energy:    -0.00000013      T1 diagnostic:  0.01554584
                                                                       D1 diagnostic:  0.04745003

 Adding energy correction from Wij-K(Fij), methodcc=6  factor=1.0
 
  CCSD correlation energy              -0.862512103570
  MP2-F12 correction (uncoupled)       -0.092679338195
  C*T doubles correction               -0.001478353550
  f12b correction                       0.015431769448


 Total CPU time for triples:     78.83 sec


 RESULTS
 =======

  Reference energy                   -263.759660380532
  F12 singles correction               -0.015933055936

 F12 singles corrections added to reference energy

  New reference energy               -263.775593436468

  F12a singlet correction              -0.080397601221
  F12a triplet correction              -0.013760090524
  F12a total correction                -0.094157691745

 F12a corrections for ansatz F12/3C(FIX) added to CCSD energy
 
  CCSD-F12a singlet pair energy        -0.641748995958
  CCSD-F12a triplet pair energy        -0.314920671807
  CCSD-F12a correlation energy         -0.956669795314

  Triples (T) contribution             -0.038336615999
  Total correlation energy             -0.995006411313

  CCSD-F12a total energy             -264.732263231782
  CCSD[T]-F12a energy                -264.773164448506
  CCSD-T-F12a energy                 -264.769670799171
 !CCSD(T)-F12a total energy          -264.770599847781

 F12b corrections for ansatz F12/3C(FIX) added to CCSD(T)-F12a energy

  CCSD-F12b singlet pair energy        -0.627566411892
  CCSD-F12b triplet pair energy        -0.313671486425
  CCSD-F12b correlation energy         -0.941238025866

  Triples (T) contribution             -0.038336615999
  Total correlation energy             -0.979574641865

  CCSD-F12b total energy             -264.716831462334
  CCSD[T]-F12b energy                -264.757732679058
  CCSD-T-F12b energy                 -264.754239029723
 !CCSD(T)-F12b total energy          -264.755168078333

 Timing summary (sec):

 STEP                 CPU(USER)    SYS     CPU(TOT)    WALL
 Transformation          5.54      0.54      6.08      6.09
 CCSD iterations        31.83      1.67     33.50     34.96
 Triples                78.83      1.62     80.45     80.42
 MP2-F12                11.30      1.30     12.60     13.62
 F12b energy             2.32      0.05      2.37      2.37

 Program statistics:

 Available memory in ccsd:                99998934
 Min. memory needed in ccsd:               4419579
 Max. memory used in ccsd:                 5922321
 Max. memory used in cckext:               6231049 (10 integral passes)



 **********************************************************************************************************************************
 DATASETS  * FILE   NREC   LENGTH (MB)   RECORD NAMES
              1      20      268.24       500      610      700      900      950      970     1000      129      960     1100   
                                          VAR    BASINP    GEOM    SYMINP    ZMAT    AOBASIS   BASIS     P2S    ABASIS      S 
                                         1400     1410     1200     1210     1080     1600     1650     1700      960(1)  1380   
                                           T        V       H0       H01     AOSYM     SMH    MOLCAS    OPER    ABASIS    JKOP   

              2       5        1.51       700     1000     2100     7360     7350   
                                         GEOM     BASIS     RHF    F12ABS    EF12   

 PROGRAMS   *        TOTAL   CCSD(T)        HF       INT
 CPU TIMES  *       146.27    130.03      4.67     11.46
 REAL TIME  *       156.37 SEC
 DISK USED  *         3.36 GB      
 SF USED    *         1.52 GB      
 GA USED    *         2.40 MB       (max)       0.00 MB       (current)
 **********************************************************************************************************************************

     CCSD(T)-F12        HF-SCF  
   -264.75516808   -263.75966038
 **********************************************************************************************************************************
 Variable memory released
