
 Primary working directories    : /scratch/kee
 Secondary working directories  : /scratch/kee
 Wavefunction directory         : /home/kee/wfu/
 Main file repository           : /scratch/kee/

 ARCHNAME  : Linux/x86_64
 FC        : /opt/intel/composer_xe_2015.0.090/bin/intel64/ifort
 FCVERSION : 15.0.0
 BLASLIB   : -L/opt/intel/mkl/lib/intel64 -lmkl_intel_ilp64 -lmkl_sequential -lmkl_core
 id        : emory

 Nodes     nprocs
 node23       3
 Number of processes for MPI-2 version of Molpro:   nprocs(total)=    4   nprocs(compute)=    3   nprocs(helper)=    1
 ga_uses_ma=false, calling ma_init with nominal heap.
 GA-space will be limited to   8.0 MW (determined by -G option)

 Using customized tuning parameters: mindgm=7; mindgv=32; mindgc=1; mindgr=1; noblas=0; mincuda=1000; minvec=7
 default implementation of scratch files=sf  

 ***,co2h2o
 memory,100,m
 basis avtz
 geomtype = xyz
 geometry = {
 6
       0.00000000
 O     0.02747900    1.16001200    0.00000000
 O    -0.00936500   -1.16396300    0.00000000
 O     2.17534916   -0.01163066    0.00000000
 H     2.56444416    0.42964334    0.75746400
 H     2.56444416    0.42964334   -0.75746400
 C     0.02536600   -0.00312200    0.00000000
 }
 hf
 ccsd(t)-f12
 ---

 Variables initialized (665), CPU time= 0.01 sec
 Commands  initialized (462), CPU time= 0.01 sec, 486 directives.
 Default parameters read. Elapsed time= 0.05 sec

 Checking input...
 Passed
1


                                         ***  PROGRAM SYSTEM MOLPRO  ***
                         Copyright, University College Cardiff Consultants Limited, 2008

                                    Version 2010.1 linked 9 Dec 2014 15:06:28 


 **********************************************************************************************************************************
 LABEL *   co2h2o                                                                        
 Linux-2.6.32-504.el6.x86_64/node23(x86_64) 64 bit mpp version                           DATE: 14-Dec-16          TIME: 23:48:39  
 **********************************************************************************************************************************

 Patch level:      19
 **********************************************************************************************************************************

 Variable memory set to  100000000 words,  buffer space   230000 words

 SETTING BASIS          =    AVTZ
 SETTING GEOMTYPE       =    XYZ

Geometry recognized as XYZ



 Recomputing integrals since basis changed


 Using spherical harmonics

 Library entry O      S aug-cc-pVTZ          selected for orbital group  1
 Library entry O      P aug-cc-pVTZ          selected for orbital group  1
 Library entry O      D aug-cc-pVTZ          selected for orbital group  1
 Library entry O      F aug-cc-pVTZ          selected for orbital group  1
 Library entry H      S aug-cc-pVTZ          selected for orbital group  2
 Library entry H      P aug-cc-pVTZ          selected for orbital group  2
 Library entry H      D aug-cc-pVTZ          selected for orbital group  2
 Library entry C      S aug-cc-pVTZ          selected for orbital group  3
 Library entry C      P aug-cc-pVTZ          selected for orbital group  3
 Library entry C      D aug-cc-pVTZ          selected for orbital group  3
 Library entry C      F aug-cc-pVTZ          selected for orbital group  3

1PROGRAM * SEWARD (Integral evaluation for generally contracted gaussian basis sets)     Author: Roland Lindh, 1990

 Geometry written to block  1 of record 700


 Point group  Cs  



 ATOMIC COORDINATES

 NR  ATOM    CHARGE       X              Y              Z

   1  O       8.00    0.051927784    2.192104989    0.000000000
   2  O       8.00   -0.017697285   -2.199571297    0.000000000
   3  O       8.00    4.110814153   -0.021978762    0.000000000
   4  H       1.00    4.846097142    0.811908247    1.431399514
   5  H       1.00    4.846097142    0.811908247   -1.431399514
   6  C       6.00    0.047934793   -0.005899725    0.000000000

 Bond lengths in Bohr (Angstrom)

 1-6  2.198008341  2-6  2.194653170  3-4  1.812432947  3-5  1.812432947
     (1.163135919)     (1.161360439)     (0.959098208)     (0.959098208)

 Bond angles

  1-6-2  178.39037465   4-3-5  104.32746287

 NUCLEAR CHARGE:                   32
 NUMBER OF PRIMITIVE AOS:         322
 NUMBER OF SYMMETRY AOS:          282
 NUMBER OF CONTRACTIONS:          230   ( 143A'  +  87A"  )
 NUMBER OF CORE ORBITALS:           4   (   4A'  +   0A"  )
 NUMBER OF VALENCE ORBITALS:       18   (  13A'  +   5A"  )


 NUCLEAR REPULSION ENERGY  114.98700848


 Eigenvalues of metric

         1 0.179E-03 0.247E-03 0.323E-03 0.551E-03 0.737E-03 0.792E-03 0.115E-02 0.166E-02
         2 0.311E-03 0.130E-02 0.284E-02 0.340E-02 0.404E-02 0.598E-02 0.731E-02 0.950E-02


 Contracted 2-electron integrals neglected if value below      1.0D-11
 AO integral compression algorithm  1   Integral accuracy      1.0D-11

     837.288 MB (compressed) written to integral file ( 49.4%)

     Node minimum: 272.630 MB, node maximum: 291.504 MB


 NUMBER OF SORTED TWO-ELECTRON INTEGRALS:   59530350.     BUFFER LENGTH:  32768
 NUMBER OF SEGMENTS:   4  SEGMENT LENGTH:   15999984      RECORD LENGTH: 524288

 Memory used in sort:      16.56 MW

 SORT1 READ   212043035. AND WROTE    58050163. INTEGRALS IN    168 RECORDS. CPU TIME:     3.73 SEC, REAL TIME:     4.43 SEC
 SORT2 READ   174384078. AND WROTE   178576926. INTEGRALS IN   3336 RECORDS. CPU TIME:     1.14 SEC, REAL TIME:     1.74 SEC

 Node minimum:    59520934.  Node maximum:    59530350. integrals

 OPERATOR DM      FOR CENTER  0  COORDINATES:    0.000000    0.000000    0.000000


 **********************************************************************************************************************************
 DATASETS  * FILE   NREC   LENGTH (MB)   RECORD NAMES
              1      18        3.71       500      610      700      900      950      970     1000      129      960     1100   
                                          VAR    BASINP    GEOM    SYMINP    ZMAT    AOBASIS   BASIS     P2S    ABASIS      S 
                                         1400     1410     1200     1210     1080     1600     1650     1700   
                                           T        V       H0       H01     AOSYM     SMH    MOLCAS    OPER   

 PROGRAMS   *        TOTAL       INT
 CPU TIMES  *         9.22      9.11
 REAL TIME  *        10.81 SEC
 DISK USED  *         2.91 GB      
 GA USED    *         0.00 MB       (max)       0.00 MB       (current)
 **********************************************************************************************************************************

1PROGRAM * RHF-SCF (CLOSED SHELL)       Authors: W. Meyer, H.-J. Werner


 NUMBER OF ELECTRONS:      16+   16-
 CONVERGENCE THRESHOLDS:    1.00E-05 (Density)    1.00E-07 (Energy)
 MAX. NUMBER OF ITERATIONS:       60
 INTERPOLATION TYPE:            DIIS
 INTERPOLATION STEPS:              2 (START)      1 (STEP)
 LEVEL SHIFTS:                  0.00 (CLOSED)  0.00 (OPEN) 



 Orbital guess generated from atomic densities. Full valence occupancy:   17   5

 Molecular orbital dump at record        2100.2

 Initial alpha occupancy:  13   3
 Initial beta  occupancy:  13   3
 Wave function symmetry:    1

 ITERATION    DDIFF          GRAD             ENERGY        2-EL.EN.            DIPOLE MOMENTS         DIIS
    1      0.000D+00      0.000D+00      -263.64666717    426.569945    1.01309    0.84410    0.00000    0
    2      0.000D+00      0.628D-02      -263.71082193    422.017945    0.85357    0.44948    0.00000    1
    3      0.103D-01      0.413D-02      -263.74907799    424.203931    0.83322    0.56072    0.00000    2
    4      0.405D-02      0.433D-03      -263.74965089    424.106526    0.82149    0.55140    0.00000    3
    5      0.535D-03      0.147D-03      -263.74972660    424.059294    0.81550    0.55612    0.00000    4
    6      0.211D-03      0.569D-04      -263.74973716    424.079915    0.81456    0.55155    0.00000    5
    7      0.705D-04      0.136D-04      -263.74973809    424.074173    0.81412    0.55315    0.00000    6
    8      0.248D-04      0.589D-05      -263.74973820    424.073439    0.81405    0.55221    0.00000    7
    9      0.732D-05      0.159D-05      -263.74973821    424.074335    0.81407    0.55235    0.00000    8
   10      0.284D-05      0.483D-06      -263.74973821    424.074060    0.81406    0.55230    0.00000    0

 Final occupancy:  13   3

 !RHF STATE 1.1 Energy               -263.749738214651
 Nuclear energy                       114.98700848
 One-electron energy                 -590.77377657
 Two-electron energy                  212.03702988
 Virial quotient                       -1.00099610
 !RHF STATE 1.1 Dipole moment           0.81406373     0.55230401     0.00000000
 Dipole moment /Debye                   2.06900809     1.40372483     0.00000000

 Orbital energies:

         1.1          2.1          3.1          4.1          5.1          6.1          7.1          8.1          9.1         10.1
    -20.614690   -20.614580   -20.584015   -11.433710    -1.501198    -1.445923    -1.379966    -0.773117    -0.713490    -0.713063

        11.1         12.1         13.1         14.1         15.1
     -0.601034    -0.536557    -0.500064     0.023316     0.069029

         1.2          2.2          3.2          4.2          5.2
     -0.744782    -0.681524    -0.512145     0.044480     0.094633


 **********************************************************************************************************************************
 DATASETS  * FILE   NREC   LENGTH (MB)   RECORD NAMES
              1      18        3.72       500      610      700      900      950      970     1000      129      960     1100   
                                          VAR    BASINP    GEOM    SYMINP    ZMAT    AOBASIS   BASIS     P2S    ABASIS      S 
                                         1400     1410     1200     1210     1080     1600     1650     1700   
                                           T        V       H0       H01     AOSYM     SMH    MOLCAS    OPER   

              2       3        0.94       700     1000     2100   
                                         GEOM     BASIS     RHF  

 PROGRAMS   *        TOTAL        HF       INT
 CPU TIMES  *        13.90      4.68      9.11
 REAL TIME  *        15.92 SEC
 DISK USED  *         2.94 GB      
 SF USED    *         0.11 MB      
 GA USED    *         0.00 MB       (max)       0.00 MB       (current)
 **********************************************************************************************************************************


1PROGRAM * CCSD (Closed-shell coupled cluster)     Authors: C. Hampel, H.-J. Werner, 1991, M. Deegan, P.J. Knowles, 1992

                                  CCSD-F12 implementation by  H.-J. Werner, 2007

                   Density fitting integral evaluation by F.R. Manby, 2003,2007, G. Knizia, 2010

 Basis set CC-PVTZ/JKFIT generated.      Number of basis functions:   376 
 Basis set AUG-CC-PVTZ/MP2FIT generated. Number of basis functions:   516 

 Convergence thresholds:  THRVAR = 1.00D-08  THRDEN = 1.00D-06

 CCSD(T)     terms to be evaluated (factor= 1.000)


 Number of core orbitals:           4 (   4   0 )
 Number of closed-shell orbitals:  12 (   9   3 )
 Number of external orbitals:     214 ( 130  84 )

 Molecular orbitals read from record     2100.2  Type=RHF/CANONICAL (state 1.1)

 MP2-F12 correlation treatment (H.-J. Werner, 2006)
 --------------------------------------------------

 Using MP2-F12 with ansatz 3C(FIX)

 Using projected zeroth-order Hamiltonian (+Z)

 FOCKRIB=T FOCKRIC=T FOCKRIP=T CABSP=T CABSA=T CABSK=T CABSF=T GBC=F EBC=F DMAT=T NOFIK=T NOPAO=1 SOLVE=-1  USEPAO=0
 EXCH_A= T EXCH_B= F EXCH_C= F EXCH_P= F
 
 Geminal basis:    OPTFULL  GEM_TYPE=SLATER  BETA=1.0  NGEM=6

 Optimizing Gaussian exponents for each gem_beta

 Geminal optimization for beta= 1.0000
 Weight function:   m=0, omega= 1.4646

 Augmented Hessian optimization of geminal fit. Trust ratio= 0.40000
 Convergence reached after   2 iterations. Final gradient= 8.24D-16, Step= 4.32D-06, Delta= 1.28D-09
 
 Alpha:                 0.19532     0.81920     2.85917     9.50073    35.69989   197.79328
 Coeff:                 0.27070     0.30552     0.18297     0.10986     0.06810     0.04224
 

 Symmetry turned off. Reference energy:       -263.749738214652

 All pairs explicitly correlated. Number of r12-pairs:           78
 
 AO(A)-basis ORBITAL           loaded. Number of functions:     230
 RI(R)-basis CC-PVTZ/JKFIT     loaded. Number of functions:     376
 DF-basis CC-PVTZ/JKFIT        loaded. Number of functions:     376

 Screening thresholds:   THRAO=  1.00D-10  THRMO=  1.00D-09  THRPROD=  1.00D-09
                         THRSW=  1.00D-05  THROV=  1.00D-12  THRF12=   1.00D-08

 CPU time for Fock operators                      1.09 sec
 
 Construction of ABS:
 Smallest eigenvalue of S          2.28E-04  (threshold= 1.00E-08)
 Ratio eigmin/eigmax               1.63E-06  (threshold= 1.00E-09)
 Smallest eigenvalue of S kept     2.28E-04  (threshold= 2.28E-04, 0 functions deleted, 376 kept)
 
 Construction of CABS:
 Smallest eigenvalue of S          2.22E-08  (threshold= 1.00E-08)
 Ratio eigmin/eigmax               2.22E-08  (threshold= 1.00E-09)
 Smallest eigenvalue of S kept     2.22E-08  (threshold= 2.22E-08, 0 functions deleted, 376 kept)
 
 CPU time for CABS singles                        0.18 sec

 CABS-singles contribution of  -0.01593604 patched into reference energy.
 New reference energy        -263.76567426
 
 AO(A)-basis ORBITAL           loaded. Number of functions:     230
 RI(R)-basis CC-PVTZ/JKFIT     loaded. Number of functions:     376
 DF-basis AUG-CC-PVTZ/MP2FIT   loaded. Number of functions:     516

 Screening thresholds:   THRAO=  1.00D-10  THRMO=  1.00D-09  THRPROD=  1.00D-09
                         THRSW=  1.00D-05  THROV=  1.00D-12  THRF12=   1.00D-08

 CPU time for 3-index integral evaluation         3.51 sec
 CPU time for first  half transformation          0.29 sec (10118.0 MFLOP/sec)
 CPU time for second half transformation          0.04 sec ( 2481.8 MFLOP/sec)
 CPU time for sorting                             0.14 sec
 CPU time for fitting                             0.05 sec (27861.0 MFLOP/sec)
 CPU time for tilde quantities                    0.10 sec (19713.6 MFLOP/sec)
 CPU time for assembly                            0.81 sec (30090.4 MFLOP/sec)
 CPU time for tranop_f12                          1.07 sec (30238.3 MFLOP/sec)
 CPU time for f12 integrals (total)               8.41 sec
 F12-matrices built in  3 passes.
 F12-matrices built in  3 passes.
 F12-matrices built in  3 passes.
 F12-matrices built in  3 passes.
 FC-matrix built in  3 passes.
 CPU time for f12 matrices (total)                0.63 sec

 Diagonal F12 approximation with fixed coefficients:  TSING= 0.500,  TTRIP= 0.250 (scaled by -1/beta)

 DF-MP2-F12 energy corrections:
 ------------------------------
 Approx.                                    Singlet             Triplet             Total
 DF-MP2-F12/3*C(DX,FIX)                -0.097586409088     -0.017203253507     -0.114789662595
 DF-MP2-F12/3*C(FIX)                   -0.079905656978     -0.013681756299     -0.093587413277
 DF-MP2-F12/3C(FIX)                    -0.080270527673     -0.013737034347     -0.094007562021

 DF-MP2-F12 correlation energies:
 --------------------------------
 Approx.                                    Singlet             Triplet             Ecorr            Total Energy
 DF-MP2                                -0.538239340911     -0.347954590302     -0.886193931212   -264.651868188472
 DF-MP2-F12/3*C(DX,FIX)                -0.635825749999     -0.365157843808     -1.000983593807   -264.766657851067
 DF-MP2-F12/3*C(FIX)                   -0.618144997888     -0.361636346600     -0.979781344489   -264.745455601749
 DF-MP2-F12/3C(FIX)                    -0.618509868584     -0.361691624649     -0.980201493233   -264.745875750493

 SCS-DF-MP2 energies (F_SING= 1.20000  F_TRIP= 0.62222  F_PARALLEL= 0.33333):
 ----------------------------------------------------------------------------
 SCS-DF-MP2                            -0.862392287503   -264.628066544763
 SCS-DF-MP2-F12/3*C(DX,FIX)            -0.990200225035   -264.755874482295
 SCS-DF-MP2-F12/3*C(FIX)               -0.966792168684   -264.732466425944
 SCS-DF-MP2-F12/3C(FIX)                -0.967264408749   -264.732938666009

 Symmetry restored.
 Symmetry transformation completed.

 Number of N-1 electron functions:              12
 Number of N-2 electron functions:              78
 Number of singly external CSFs:              1422
 Number of doubly external CSFs:           1668984
 Total number of CSFs:                     1670407

 Pair and operator lists are different

 Length of J-op  integral file:             466.33 MB
 Length of K-op  integral file:             525.76 MB
 Length of 3-ext integral record:             0.00 MB

 Memory could be reduced to 76.19 Mwords without degradation in triples

 Integral transformation finished. Total CPU:   4.99 sec, npass=  1  Memory used:  26.50 MW

 Reference energy:                   -263.76567426

 Adding F12 terms to K(Cij), methodcc=6,  factor=1.0

 ITER.      SQ.NORM     CORR.ENERGY   TOTAL ENERGY   ENERGY CHANGE        DEN1      VAR(S)    VAR(P)  DIIS     TIME
   1      1.20153354    -0.86773034  -264.63340459     0.01846770     0.04694055  0.73D-02  0.54D-02  1  1    18.87
   2      1.21583862    -0.86360183  -264.62927609     0.00412851    -0.02019138  0.94D-04  0.58D-03  2  2    22.17
   3      1.22122493    -0.86373991  -264.62941417    -0.00013808    -0.00228419  0.14D-03  0.31D-04  3  3    25.48
   4      1.22409498    -0.86360447  -264.62927873     0.00013544    -0.00141809  0.92D-05  0.42D-05  4  4    28.70
   5      1.22518958    -0.86356854  -264.62924280     0.00003594    -0.00037225  0.95D-06  0.31D-06  5  5    32.21
   6      1.22537889    -0.86354019  -264.62921445     0.00002834    -0.00000854  0.81D-07  0.37D-07  6  6    35.61
   7      1.22542195    -0.86353693  -264.62921118     0.00000327    -0.00000733  0.14D-07  0.51D-08  6  2    39.01
   8      1.22542554    -0.86353646  -264.62921071     0.00000047     0.00000177  0.12D-08  0.65D-09  6  1    42.36
   9      1.22542653    -0.86353667  -264.62921093    -0.00000022     0.00000102  0.21D-09  0.58D-10  6  4    45.71

 Norm of t1 vector:      0.10828854      S-energy:    -0.00000011      T1 diagnostic:  0.01563010
                                                                       D1 diagnostic:  0.04839878

 Adding energy correction from Wij-K(Fij), methodcc=6  factor=1.0
 
  CCSD correlation energy              -0.863536673228
  MP2-F12 correction (uncoupled)       -0.092834778545
  C*T doubles correction               -0.001484233080
  f12b correction                       0.015441986272


 Total CPU time for triples:     74.40 sec


 RESULTS
 =======

  Reference energy                   -263.749738214652
  F12 singles correction               -0.015936042608

 F12 singles corrections added to reference energy

  New reference energy               -263.765674257260

  F12a singlet correction              -0.080481050624
  F12a triplet correction              -0.013837961001
  F12a total correction                -0.094319011625

 F12a corrections for ansatz F12/3C(FIX) added to CCSD energy
 
  CCSD-F12a singlet pair energy        -0.641643461366
  CCSD-F12a triplet pair energy        -0.316212109357
  CCSD-F12a correlation energy         -0.957855684852

  Triples (T) contribution             -0.038470690762
  Total correlation energy             -0.996326375614

  CCSD-F12a total energy             -264.723529942112
  CCSD[T]-F12a energy                -264.764571074026
  CCSD-T-F12a energy                 -264.761075626798
 !CCSD(T)-F12a total energy          -264.762000632875

 F12b corrections for ansatz F12/3C(FIX) added to CCSD(T)-F12a energy

  CCSD-F12b singlet pair energy        -0.627459511451
  CCSD-F12b triplet pair energy        -0.314954072999
  CCSD-F12b correlation energy         -0.942413698580

  Triples (T) contribution             -0.038470690762
  Total correlation energy             -0.980884389342

  CCSD-F12b total energy             -264.708087955840
  CCSD[T]-F12b energy                -264.749129087753
  CCSD-T-F12b energy                 -264.745633640525
 !CCSD(T)-F12b total energy          -264.746558646602

 Timing summary (sec):

 STEP                 CPU(USER)    SYS     CPU(TOT)    WALL
 Transformation          5.02      0.56      5.58      5.58
 CCSD iterations        29.94      1.77     31.71     31.82
 Triples                74.40      1.55     75.95     75.94
 MP2-F12                10.77      1.24     12.01     12.01
 F12b energy             2.29      0.06      2.35      2.35

 Program statistics:

 Available memory in ccsd:                99998934
 Min. memory needed in ccsd:               4419579
 Max. memory used in ccsd:                 5922321
 Max. memory used in cckext:               6231049 (10 integral passes)



 **********************************************************************************************************************************
 DATASETS  * FILE   NREC   LENGTH (MB)   RECORD NAMES
              1      20      268.24       500      610      700      900      950      970     1000      129      960     1100   
                                          VAR    BASINP    GEOM    SYMINP    ZMAT    AOBASIS   BASIS     P2S    ABASIS      S 
                                         1400     1410     1200     1210     1080     1600     1650     1700      960(1)  1380   
                                           T        V       H0       H01     AOSYM     SMH    MOLCAS    OPER    ABASIS    JKOP   

              2       5        1.51       700     1000     2100     7360     7350   
                                         GEOM     BASIS     RHF    F12ABS    EF12   

 PROGRAMS   *        TOTAL   CCSD(T)        HF       INT
 CPU TIMES  *       136.42    122.52      4.68      9.11
 REAL TIME  *       143.95 SEC
 DISK USED  *         3.37 GB      
 SF USED    *         1.52 GB      
 GA USED    *         2.40 MB       (max)       0.00 MB       (current)
 **********************************************************************************************************************************

     CCSD(T)-F12        HF-SCF  
   -264.74655865   -263.74973821
 **********************************************************************************************************************************
 Variable memory released
