
 Primary working directories    : /scratch/kee
 Secondary working directories  : /scratch/kee
 Wavefunction directory         : /home/kee/wfu/
 Main file repository           : /scratch/kee/

 ARCHNAME  : Linux/x86_64
 FC        : /opt/intel/composer_xe_2015.0.090/bin/intel64/ifort
 FCVERSION : 15.0.0
 BLASLIB   : -L/opt/intel/mkl/lib/intel64 -lmkl_intel_ilp64 -lmkl_sequential -lmkl_core
 id        : emory

 Nodes     nprocs
 node23       3
 Number of processes for MPI-2 version of Molpro:   nprocs(total)=    4   nprocs(compute)=    3   nprocs(helper)=    1
 ga_uses_ma=false, calling ma_init with nominal heap.
 GA-space will be limited to   8.0 MW (determined by -G option)

 Using customized tuning parameters: mindgm=7; mindgv=32; mindgc=1; mindgr=1; noblas=0; mincuda=1000; minvec=7
 default implementation of scratch files=sf  

 ***,co2h2o
 memory,100,m
 basis avtz
 geomtype = xyz
 geometry = {
 6
       0.00000000
 O     0.02747900    1.16001200    0.00000000
 O    -0.00936500   -1.16396300    0.00000000
 O     2.57534603   -0.01321367    0.00000000
 H     2.96444103    0.42806033    0.75746400
 H     2.96444103    0.42806033   -0.75746400
 C     0.02536600   -0.00312200    0.00000000
 }
 hf
 ccsd(t)-f12
 ---

 Variables initialized (665), CPU time= 0.01 sec
 Commands  initialized (462), CPU time= 0.01 sec, 486 directives.
 Default parameters read. Elapsed time= 0.04 sec

 Checking input...
 Passed
1


                                         ***  PROGRAM SYSTEM MOLPRO  ***
                         Copyright, University College Cardiff Consultants Limited, 2008

                                    Version 2010.1 linked 9 Dec 2014 15:06:28 


 **********************************************************************************************************************************
 LABEL *   co2h2o                                                                        
 Linux-2.6.32-504.el6.x86_64/node23(x86_64) 64 bit mpp version                           DATE: 15-Dec-16          TIME: 00:09:44  
 **********************************************************************************************************************************

 Patch level:      19
 **********************************************************************************************************************************

 Variable memory set to  100000000 words,  buffer space   230000 words

 SETTING BASIS          =    AVTZ
 SETTING GEOMTYPE       =    XYZ

Geometry recognized as XYZ



 Recomputing integrals since basis changed


 Using spherical harmonics

 Library entry O      S aug-cc-pVTZ          selected for orbital group  1
 Library entry O      P aug-cc-pVTZ          selected for orbital group  1
 Library entry O      D aug-cc-pVTZ          selected for orbital group  1
 Library entry O      F aug-cc-pVTZ          selected for orbital group  1
 Library entry H      S aug-cc-pVTZ          selected for orbital group  2
 Library entry H      P aug-cc-pVTZ          selected for orbital group  2
 Library entry H      D aug-cc-pVTZ          selected for orbital group  2
 Library entry C      S aug-cc-pVTZ          selected for orbital group  3
 Library entry C      P aug-cc-pVTZ          selected for orbital group  3
 Library entry C      D aug-cc-pVTZ          selected for orbital group  3
 Library entry C      F aug-cc-pVTZ          selected for orbital group  3

1PROGRAM * SEWARD (Integral evaluation for generally contracted gaussian basis sets)     Author: Roland Lindh, 1990

 Geometry written to block  1 of record 700


 Point group  Cs  



 ATOMIC COORDINATES

 NR  ATOM    CHARGE       X              Y              Z

   1  O       8.00    0.051927784    2.192104989    0.000000000
   2  O       8.00   -0.017697285   -2.199571297    0.000000000
   3  O       8.00    4.866698690   -0.024970217    0.000000000
   4  H       1.00    5.601981679    0.808916791    1.431399514
   5  H       1.00    5.601981679    0.808916791   -1.431399514
   6  C       6.00    0.047934793   -0.005899725    0.000000000

 Bond lengths in Bohr (Angstrom)

 1-6  2.198008341  2-6  2.194653170  3-4  1.812432947  3-5  1.812432947
     (1.163135919)     (1.161360439)     (0.959098208)     (0.959098208)

 Bond angles

  1-6-2  178.39037465   4-3-5  104.32746287

 NUCLEAR CHARGE:                   32
 NUMBER OF PRIMITIVE AOS:         322
 NUMBER OF SYMMETRY AOS:          282
 NUMBER OF CONTRACTIONS:          230   ( 143A'  +  87A"  )
 NUMBER OF CORE ORBITALS:           4   (   4A'  +   0A"  )
 NUMBER OF VALENCE ORBITALS:       18   (  13A'  +   5A"  )


 NUCLEAR REPULSION ENERGY  108.69688414


 Eigenvalues of metric

         1 0.218E-03 0.295E-03 0.330E-03 0.733E-03 0.834E-03 0.880E-03 0.159E-02 0.169E-02
         2 0.356E-03 0.143E-02 0.300E-02 0.343E-02 0.426E-02 0.610E-02 0.814E-02 0.105E-01


 Contracted 2-electron integrals neglected if value below      1.0D-11
 AO integral compression algorithm  1   Integral accuracy      1.0D-11

     792.461 MB (compressed) written to integral file ( 46.7%)

     Node minimum: 252.969 MB, node maximum: 272.630 MB


 NUMBER OF SORTED TWO-ELECTRON INTEGRALS:   59530350.     BUFFER LENGTH:  32768
 NUMBER OF SEGMENTS:   4  SEGMENT LENGTH:   15999984      RECORD LENGTH: 524288

 Memory used in sort:      16.56 MW

 SORT1 READ   212043035. AND WROTE    56395444. INTEGRALS IN    163 RECORDS. CPU TIME:     3.76 SEC, REAL TIME:     4.39 SEC
 SORT2 READ   169690722. AND WROTE   178576926. INTEGRALS IN   3120 RECORDS. CPU TIME:     1.17 SEC, REAL TIME:     1.75 SEC

 Node minimum:    59520934.  Node maximum:    59530350. integrals

 OPERATOR DM      FOR CENTER  0  COORDINATES:    0.000000    0.000000    0.000000


 **********************************************************************************************************************************
 DATASETS  * FILE   NREC   LENGTH (MB)   RECORD NAMES
              1      18        3.71       500      610      700      900      950      970     1000      129      960     1100   
                                          VAR    BASINP    GEOM    SYMINP    ZMAT    AOBASIS   BASIS     P2S    ABASIS      S 
                                         1400     1410     1200     1210     1080     1600     1650     1700   
                                           T        V       H0       H01     AOSYM     SMH    MOLCAS    OPER   

 PROGRAMS   *        TOTAL       INT
 CPU TIMES  *         9.47      9.37
 REAL TIME  *        11.31 SEC
 DISK USED  *         2.81 GB      
 GA USED    *         0.00 MB       (max)       0.00 MB       (current)
 **********************************************************************************************************************************

1PROGRAM * RHF-SCF (CLOSED SHELL)       Authors: W. Meyer, H.-J. Werner


 NUMBER OF ELECTRONS:      16+   16-
 CONVERGENCE THRESHOLDS:    1.00E-05 (Density)    1.00E-07 (Energy)
 MAX. NUMBER OF ITERATIONS:       60
 INTERPOLATION TYPE:            DIIS
 INTERPOLATION STEPS:              2 (START)      1 (STEP)
 LEVEL SHIFTS:                  0.00 (CLOSED)  0.00 (OPEN) 



 Orbital guess generated from atomic densities. Full valence occupancy:   17   5

 Molecular orbital dump at record        2100.2

 Initial alpha occupancy:  13   3
 Initial beta  occupancy:  13   3
 Wave function symmetry:    1

 ITERATION    DDIFF          GRAD             ENERGY        2-EL.EN.            DIPOLE MOMENTS         DIIS
    1      0.000D+00      0.000D+00      -263.66417839    413.703006    0.87805    0.84391    0.00000    0
    2      0.000D+00      0.629D-02      -263.72779481    409.152318    0.69332    0.45119    0.00000    1
    3      0.102D-01      0.417D-02      -263.76721786    411.509413    0.71185    0.56176    0.00000    2
    4      0.410D-02      0.421D-03      -263.76773834    411.348871    0.70707    0.55538    0.00000    3
    5      0.509D-03      0.132D-03      -263.76780254    411.326318    0.70307    0.55872    0.00000    4
    6      0.196D-03      0.543D-04      -263.76781165    411.344372    0.70304    0.55494    0.00000    5
    7      0.666D-04      0.134D-04      -263.76781253    411.337469    0.70277    0.55634    0.00000    6
    8      0.233D-04      0.518D-05      -263.76781262    411.337091    0.70272    0.55547    0.00000    7
    9      0.679D-05      0.232D-05      -263.76781263    411.337967    0.70275    0.55579    0.00000    0

 Final occupancy:  13   3

 !RHF STATE 1.1 Energy               -263.767812633642
 Nuclear energy                       108.69688414
 One-electron energy                 -578.13368022
 Two-electron energy                  205.66898344
 Virial quotient                       -1.00161376
 !RHF STATE 1.1 Dipole moment           0.70275254     0.55579455     0.00000000
 Dipole moment /Debye                   1.78610180     1.41259632     0.00000000

 Orbital energies:

         1.1          2.1          3.1          4.1          5.1          6.1          7.1          8.1          9.1         10.1
    -20.628149   -20.627600   -20.579833   -11.439956    -1.507436    -1.454335    -1.369028    -0.779218    -0.721502    -0.699145

        11.1         12.1         13.1         14.1         15.1
     -0.598697    -0.533759    -0.513320     0.024960     0.066177

         1.2          2.2          3.2          4.2          5.2
     -0.732505    -0.691585    -0.521788     0.045353     0.092023


 **********************************************************************************************************************************
 DATASETS  * FILE   NREC   LENGTH (MB)   RECORD NAMES
              1      18        3.72       500      610      700      900      950      970     1000      129      960     1100   
                                          VAR    BASINP    GEOM    SYMINP    ZMAT    AOBASIS   BASIS     P2S    ABASIS      S 
                                         1400     1410     1200     1210     1080     1600     1650     1700   
                                           T        V       H0       H01     AOSYM     SMH    MOLCAS    OPER   

              2       3        0.94       700     1000     2100   
                                         GEOM     BASIS     RHF  

 PROGRAMS   *        TOTAL        HF       INT
 CPU TIMES  *        14.25      4.78      9.37
 REAL TIME  *        16.56 SEC
 DISK USED  *         2.84 GB      
 SF USED    *         0.11 MB      
 GA USED    *         0.00 MB       (max)       0.00 MB       (current)
 **********************************************************************************************************************************


1PROGRAM * CCSD (Closed-shell coupled cluster)     Authors: C. Hampel, H.-J. Werner, 1991, M. Deegan, P.J. Knowles, 1992

                                  CCSD-F12 implementation by  H.-J. Werner, 2007

                   Density fitting integral evaluation by F.R. Manby, 2003,2007, G. Knizia, 2010

 Basis set CC-PVTZ/JKFIT generated.      Number of basis functions:   376 
 Basis set AUG-CC-PVTZ/MP2FIT generated. Number of basis functions:   516 

 Convergence thresholds:  THRVAR = 1.00D-08  THRDEN = 1.00D-06

 CCSD(T)     terms to be evaluated (factor= 1.000)


 Number of core orbitals:           4 (   4   0 )
 Number of closed-shell orbitals:  12 (   9   3 )
 Number of external orbitals:     214 ( 130  84 )

 Molecular orbitals read from record     2100.2  Type=RHF/CANONICAL (state 1.1)

 MP2-F12 correlation treatment (H.-J. Werner, 2006)
 --------------------------------------------------

 Using MP2-F12 with ansatz 3C(FIX)

 Using projected zeroth-order Hamiltonian (+Z)

 FOCKRIB=T FOCKRIC=T FOCKRIP=T CABSP=T CABSA=T CABSK=T CABSF=T GBC=F EBC=F DMAT=T NOFIK=T NOPAO=1 SOLVE=-1  USEPAO=0
 EXCH_A= T EXCH_B= F EXCH_C= F EXCH_P= F
 
 Geminal basis:    OPTFULL  GEM_TYPE=SLATER  BETA=1.0  NGEM=6

 Optimizing Gaussian exponents for each gem_beta

 Geminal optimization for beta= 1.0000
 Weight function:   m=0, omega= 1.4646

 Augmented Hessian optimization of geminal fit. Trust ratio= 0.40000
 Convergence reached after   2 iterations. Final gradient= 8.24D-16, Step= 4.32D-06, Delta= 1.28D-09
 
 Alpha:                 0.19532     0.81920     2.85917     9.50073    35.69989   197.79328
 Coeff:                 0.27070     0.30552     0.18297     0.10986     0.06810     0.04224
 

 Symmetry turned off. Reference energy:       -263.767812633642

 All pairs explicitly correlated. Number of r12-pairs:           78
 
 AO(A)-basis ORBITAL           loaded. Number of functions:     230
 RI(R)-basis CC-PVTZ/JKFIT     loaded. Number of functions:     376
 DF-basis CC-PVTZ/JKFIT        loaded. Number of functions:     376

 Screening thresholds:   THRAO=  1.00D-10  THRMO=  1.00D-09  THRPROD=  1.00D-09
                         THRSW=  1.00D-05  THROV=  1.00D-12  THRF12=   1.00D-08

 CPU time for Fock operators                      1.13 sec
 
 Construction of ABS:
 Smallest eigenvalue of S          2.46E-04  (threshold= 1.00E-08)
 Ratio eigmin/eigmax               1.75E-06  (threshold= 1.00E-09)
 Smallest eigenvalue of S kept     2.46E-04  (threshold= 2.46E-04, 0 functions deleted, 376 kept)
 
 Construction of CABS:
 Smallest eigenvalue of S          2.26E-08  (threshold= 1.00E-08)
 Ratio eigmin/eigmax               2.26E-08  (threshold= 1.00E-09)
 Smallest eigenvalue of S kept     2.26E-08  (threshold= 2.26E-08, 0 functions deleted, 376 kept)
 
 CPU time for CABS singles                        0.19 sec

 CABS-singles contribution of  -0.01594088 patched into reference energy.
 New reference energy        -263.78375351
 
 AO(A)-basis ORBITAL           loaded. Number of functions:     230
 RI(R)-basis CC-PVTZ/JKFIT     loaded. Number of functions:     376
 DF-basis AUG-CC-PVTZ/MP2FIT   loaded. Number of functions:     516

 Screening thresholds:   THRAO=  1.00D-10  THRMO=  1.00D-09  THRPROD=  1.00D-09
                         THRSW=  1.00D-05  THROV=  1.00D-12  THRF12=   1.00D-08

 CPU time for 3-index integral evaluation         3.96 sec
 CPU time for first  half transformation          0.43 sec ( 6033.5 MFLOP/sec)
 CPU time for second half transformation          0.02 sec ( 4870.8 MFLOP/sec)
 CPU time for sorting                             0.23 sec
 CPU time for fitting                             0.05 sec (27520.2 MFLOP/sec)
 CPU time for tilde quantities                    0.07 sec (24419.5 MFLOP/sec)
 CPU time for assembly                            0.96 sec (23302.7 MFLOP/sec)
 CPU time for tranop_f12                          1.03 sec (28107.9 MFLOP/sec)
 CPU time for f12 integrals (total)              10.04 sec
 F12-matrices built in  3 passes.
 F12-matrices built in  3 passes.
 F12-matrices built in  3 passes.
 F12-matrices built in  3 passes.
 FC-matrix built in  3 passes.
 CPU time for f12 matrices (total)                0.65 sec

 Diagonal F12 approximation with fixed coefficients:  TSING= 0.500,  TTRIP= 0.250 (scaled by -1/beta)

 DF-MP2-F12 energy corrections:
 ------------------------------
 Approx.                                    Singlet             Triplet             Total
 DF-MP2-F12/3*C(DX,FIX)                -0.097356653601     -0.017035541380     -0.114392194981
 DF-MP2-F12/3*C(FIX)                   -0.079758877216     -0.013519562383     -0.093278439599
 DF-MP2-F12/3C(FIX)                    -0.080130650298     -0.013562671523     -0.093693321821

 DF-MP2-F12 correlation energies:
 --------------------------------
 Approx.                                    Singlet             Triplet             Ecorr            Total Energy
 DF-MP2                                -0.538126068317     -0.345502676287     -0.883628744604   -264.667382257089
 DF-MP2-F12/3*C(DX,FIX)                -0.635482721918     -0.362538217667     -0.998020939585   -264.781774452070
 DF-MP2-F12/3*C(FIX)                   -0.617884945534     -0.359022238670     -0.976907184204   -264.760660696688
 DF-MP2-F12/3C(FIX)                    -0.618256718615     -0.359065347810     -0.977322066425   -264.761075578910

 SCS-DF-MP2 energies (F_SING= 1.20000  F_TRIP= 0.62222  F_PARALLEL= 0.33333):
 ----------------------------------------------------------------------------
 SCS-DF-MP2                            -0.860730725004   -264.644484237489
 SCS-DF-MP2-F12/3*C(DX,FIX)            -0.988158601739   -264.771912114224
 SCS-DF-MP2-F12/3*C(FIX)               -0.964853549813   -264.748607062298
 SCS-DF-MP2-F12/3C(FIX)                -0.965326500975   -264.749080013460

 Symmetry restored.
 Symmetry transformation completed.

 Number of N-1 electron functions:              12
 Number of N-2 electron functions:              78
 Number of singly external CSFs:              1422
 Number of doubly external CSFs:           1668984
 Total number of CSFs:                     1670407

 Pair and operator lists are different

 Length of J-op  integral file:             466.33 MB
 Length of K-op  integral file:             525.76 MB
 Length of 3-ext integral record:             0.00 MB

 Memory could be reduced to 76.19 Mwords without degradation in triples

 Integral transformation finished. Total CPU:   5.11 sec, npass=  1  Memory used:  26.50 MW

 Reference energy:                   -263.78375351

 Adding F12 terms to K(Cij), methodcc=6,  factor=1.0

 ITER.      SQ.NORM     CORR.ENERGY   TOTAL ENERGY   ENERGY CHANGE        DEN1      VAR(S)    VAR(P)  DIIS     TIME
   1      1.20210918    -0.86543808  -264.64919160     0.01820025     0.04677393  0.73D-02  0.55D-02  1  1    20.78
   2      1.21646883    -0.86127162  -264.64502513     0.00416646    -0.02021959  0.89D-04  0.59D-03  2  2    23.84
   3      1.22183510    -0.86139143  -264.64514494    -0.00011981    -0.00231267  0.13D-03  0.32D-04  3  3    26.75
   4      1.22466588    -0.86125933  -264.64501284     0.00013210    -0.00141662  0.81D-05  0.41D-05  4  4    30.96
   5      1.22571330    -0.86122247  -264.64497599     0.00003686    -0.00036641  0.67D-06  0.29D-06  5  5    34.14
   6      1.22588242    -0.86119524  -264.64494875     0.00002723    -0.00000802  0.52D-07  0.28D-07  6  6    37.44
   7      1.22591684    -0.86119224  -264.64494575     0.00000300    -0.00000691  0.58D-08  0.42D-08  6  2    41.39
   8      1.22591809    -0.86119192  -264.64494543     0.00000032     0.00000195  0.55D-09  0.40D-09  6  1    44.42
   9      1.22591879    -0.86119201  -264.64494552    -0.00000009     0.00000076  0.81D-10  0.31D-10  6  4    47.52

 Norm of t1 vector:      0.10702135      S-energy:     0.00000159      T1 diagnostic:  0.01544720
                                                                       D1 diagnostic:  0.04639779

 Adding energy correction from Wij-K(Fij), methodcc=6  factor=1.0
 
  CCSD correlation energy              -0.861192012021
  MP2-F12 correction (uncoupled)       -0.092530798886
  C*T doubles correction               -0.001473917797
  f12b correction                       0.015419563204


 Total CPU time for triples:     75.81 sec


 RESULTS
 =======

  Reference energy                   -263.767812633642
  F12 singles correction               -0.015940878843

 F12 singles corrections added to reference energy

  New reference energy               -263.783753512485

  F12a singlet correction              -0.080333563380
  F12a triplet correction              -0.013671153303
  F12a total correction                -0.094004716684

 F12a corrections for ansatz F12/3C(FIX) added to CCSD energy
 
  CCSD-F12a singlet pair energy        -0.641843469109
  CCSD-F12a triplet pair energy        -0.313354844993
  CCSD-F12a correlation energy         -0.955196728704

  Triples (T) contribution             -0.038136678630
  Total correlation energy             -0.993333407334

  CCSD-F12a total energy             -264.738950241189
  CCSD[T]-F12a energy                -264.779642919522
  CCSD-T-F12a energy                 -264.776154194498
 !CCSD(T)-F12a total energy          -264.777086919818

 F12b corrections for ansatz F12/3C(FIX) added to CCSD(T)-F12a energy

  CCSD-F12b singlet pair energy        -0.627662976563
  CCSD-F12b triplet pair energy        -0.312115774336
  CCSD-F12b correlation energy         -0.939777165500

  Triples (T) contribution             -0.038136678630
  Total correlation energy             -0.977913844130

  CCSD-F12b total energy             -264.723530677985
  CCSD[T]-F12b energy                -264.764223356318
  CCSD-T-F12b energy                 -264.760734631295
 !CCSD(T)-F12b total energy          -264.761667356614

 Timing summary (sec):

 STEP                 CPU(USER)    SYS     CPU(TOT)    WALL
 Transformation          5.15      0.61      5.76      5.75
 CCSD iterations        29.66      1.83     31.49     31.78
 Triples                75.81      1.64     77.45     77.42
 MP2-F12                12.71      1.43     14.14     14.15
 F12b energy             2.05      0.06      2.11      2.10

 Program statistics:

 Available memory in ccsd:                99998934
 Min. memory needed in ccsd:               4419579
 Max. memory used in ccsd:                 5922321
 Max. memory used in cckext:               6231049 (10 integral passes)



 **********************************************************************************************************************************
 DATASETS  * FILE   NREC   LENGTH (MB)   RECORD NAMES
              1      20      268.24       500      610      700      900      950      970     1000      129      960     1100   
                                          VAR    BASINP    GEOM    SYMINP    ZMAT    AOBASIS   BASIS     P2S    ABASIS      S 
                                         1400     1410     1200     1210     1080     1600     1650     1700      960(1)  1380   
                                           T        V       H0       H01     AOSYM     SMH    MOLCAS    OPER    ABASIS    JKOP   

              2       5        1.51       700     1000     2100     7360     7350   
                                         GEOM     BASIS     RHF    F12ABS    EF12   

 PROGRAMS   *        TOTAL   CCSD(T)        HF       INT
 CPU TIMES  *       139.73    125.47      4.78      9.37
 REAL TIME  *       148.13 SEC
 DISK USED  *         3.27 GB      
 SF USED    *         1.52 GB      
 GA USED    *         2.40 MB       (max)       0.00 MB       (current)
 **********************************************************************************************************************************

     CCSD(T)-F12        HF-SCF  
   -264.76166736   -263.76781263
 **********************************************************************************************************************************
 Variable memory released
