
 Primary working directories    : /scratch/kee
 Secondary working directories  : /scratch/kee
 Wavefunction directory         : /home/kee/wfu/
 Main file repository           : /scratch/kee/

 ARCHNAME  : Linux/x86_64
 FC        : /opt/intel/composer_xe_2015.0.090/bin/intel64/ifort
 FCVERSION : 15.0.0
 BLASLIB   : -L/opt/intel/mkl/lib/intel64 -lmkl_intel_ilp64 -lmkl_sequential -lmkl_core
 id        : emory

 Nodes     nprocs
 node23       3
 Number of processes for MPI-2 version of Molpro:   nprocs(total)=    4   nprocs(compute)=    3   nprocs(helper)=    1
 ga_uses_ma=false, calling ma_init with nominal heap.
 GA-space will be limited to   8.0 MW (determined by -G option)

 Using customized tuning parameters: mindgm=7; mindgv=32; mindgc=1; mindgr=1; noblas=0; mincuda=1000; minvec=7
 default implementation of scratch files=sf  

 ***,co2h2o
 memory,100,m
 basis avtz
 geomtype = xyz
 geometry = {
 6
       0.00000000
 O     0.02747900    1.16001200    0.00000000
 O    -0.00936500   -1.16396300    0.00000000
 O     2.42534721   -0.01262004    0.00000000
 H     2.81444221    0.42865396    0.75746400
 H     2.81444221    0.42865396   -0.75746400
 C     0.02536600   -0.00312200    0.00000000
 }
 hf
 ccsd(t)-f12
 ---

 Variables initialized (665), CPU time= 0.01 sec
 Commands  initialized (462), CPU time= 0.01 sec, 486 directives.
 Default parameters read. Elapsed time= 0.05 sec

 Checking input...
 Passed
1


                                         ***  PROGRAM SYSTEM MOLPRO  ***
                         Copyright, University College Cardiff Consultants Limited, 2008

                                    Version 2010.1 linked 9 Dec 2014 15:06:28 


 **********************************************************************************************************************************
 LABEL *   co2h2o                                                                        
 Linux-2.6.32-504.el6.x86_64/node23(x86_64) 64 bit mpp version                           DATE: 15-Dec-16          TIME: 00:01:50  
 **********************************************************************************************************************************

 Patch level:      19
 **********************************************************************************************************************************

 Variable memory set to  100000000 words,  buffer space   230000 words

 SETTING BASIS          =    AVTZ
 SETTING GEOMTYPE       =    XYZ

Geometry recognized as XYZ



 Recomputing integrals since basis changed


 Using spherical harmonics

 Library entry O      S aug-cc-pVTZ          selected for orbital group  1
 Library entry O      P aug-cc-pVTZ          selected for orbital group  1
 Library entry O      D aug-cc-pVTZ          selected for orbital group  1
 Library entry O      F aug-cc-pVTZ          selected for orbital group  1
 Library entry H      S aug-cc-pVTZ          selected for orbital group  2
 Library entry H      P aug-cc-pVTZ          selected for orbital group  2
 Library entry H      D aug-cc-pVTZ          selected for orbital group  2
 Library entry C      S aug-cc-pVTZ          selected for orbital group  3
 Library entry C      P aug-cc-pVTZ          selected for orbital group  3
 Library entry C      D aug-cc-pVTZ          selected for orbital group  3
 Library entry C      F aug-cc-pVTZ          selected for orbital group  3

1PROGRAM * SEWARD (Integral evaluation for generally contracted gaussian basis sets)     Author: Roland Lindh, 1990

 Geometry written to block  1 of record 700


 Point group  Cs  



 ATOMIC COORDINATES

 NR  ATOM    CHARGE       X              Y              Z

   1  O       8.00    0.051927784    2.192104989    0.000000000
   2  O       8.00   -0.017697285   -2.199571297    0.000000000
   3  O       8.00    4.583242001   -0.023848419    0.000000000
   4  H       1.00    5.318524990    0.810038590    1.431399514
   5  H       1.00    5.318524990    0.810038590   -1.431399514
   6  C       6.00    0.047934793   -0.005899725    0.000000000

 Bond lengths in Bohr (Angstrom)

 1-6  2.198008341  2-6  2.194653170  3-4  1.812432947  3-5  1.812432947
     (1.163135919)     (1.161360439)     (0.959098208)     (0.959098208)

 Bond angles

  1-6-2  178.39037465   4-3-5  104.32746287

 NUCLEAR CHARGE:                   32
 NUMBER OF PRIMITIVE AOS:         322
 NUMBER OF SYMMETRY AOS:          282
 NUMBER OF CONTRACTIONS:          230   ( 143A'  +  87A"  )
 NUMBER OF CORE ORBITALS:           4   (   4A'  +   0A"  )
 NUMBER OF VALENCE ORBITALS:       18   (  13A'  +   5A"  )


 NUCLEAR REPULSION ENERGY  110.86249667


 Eigenvalues of metric

         1 0.205E-03 0.277E-03 0.327E-03 0.677E-03 0.796E-03 0.852E-03 0.143E-02 0.168E-02
         2 0.342E-03 0.139E-02 0.295E-02 0.343E-02 0.418E-02 0.607E-02 0.784E-02 0.101E-01


 Contracted 2-electron integrals neglected if value below      1.0D-11
 AO integral compression algorithm  1   Integral accuracy      1.0D-11

     810.287 MB (compressed) written to integral file ( 47.8%)

     Node minimum: 263.193 MB, node maximum: 283.640 MB


 NUMBER OF SORTED TWO-ELECTRON INTEGRALS:   59530350.     BUFFER LENGTH:  32768
 NUMBER OF SEGMENTS:   4  SEGMENT LENGTH:   15999984      RECORD LENGTH: 524288

 Memory used in sort:      16.56 MW

 SORT1 READ   212043035. AND WROTE    57110314. INTEGRALS IN    166 RECORDS. CPU TIME:     3.80 SEC, REAL TIME:     4.47 SEC
 SORT2 READ   171730560. AND WROTE   178576926. INTEGRALS IN   3246 RECORDS. CPU TIME:     1.19 SEC, REAL TIME:     1.73 SEC

 Node minimum:    59520934.  Node maximum:    59530350. integrals

 OPERATOR DM      FOR CENTER  0  COORDINATES:    0.000000    0.000000    0.000000


 **********************************************************************************************************************************
 DATASETS  * FILE   NREC   LENGTH (MB)   RECORD NAMES
              1      18        3.71       500      610      700      900      950      970     1000      129      960     1100   
                                          VAR    BASINP    GEOM    SYMINP    ZMAT    AOBASIS   BASIS     P2S    ABASIS      S 
                                         1400     1410     1200     1210     1080     1600     1650     1700   
                                           T        V       H0       H01     AOSYM     SMH    MOLCAS    OPER   

 PROGRAMS   *        TOTAL       INT
 CPU TIMES  *         9.33      9.22
 REAL TIME  *        11.10 SEC
 DISK USED  *         2.85 GB      
 GA USED    *         0.00 MB       (max)       0.00 MB       (current)
 **********************************************************************************************************************************

1PROGRAM * RHF-SCF (CLOSED SHELL)       Authors: W. Meyer, H.-J. Werner


 NUMBER OF ELECTRONS:      16+   16-
 CONVERGENCE THRESHOLDS:    1.00E-05 (Density)    1.00E-07 (Energy)
 MAX. NUMBER OF ITERATIONS:       60
 INTERPOLATION TYPE:            DIIS
 INTERPOLATION STEPS:              2 (START)      1 (STEP)
 LEVEL SHIFTS:                  0.00 (CLOSED)  0.00 (OPEN) 



 Orbital guess generated from atomic densities. Full valence occupancy:   17   5

 Molecular orbital dump at record        2100.2

 Initial alpha occupancy:  13   3
 Initial beta  occupancy:  13   3
 Wave function symmetry:    1

 ITERATION    DDIFF          GRAD             ENERGY        2-EL.EN.            DIPOLE MOMENTS         DIIS
    1      0.000D+00      0.000D+00      -263.66074926    418.130458    0.91428    0.84402    0.00000    0
    2      0.000D+00      0.627D-02      -263.72437320    413.587244    0.74061    0.44986    0.00000    1
    3      0.102D-01      0.415D-02      -263.76325911    415.889745    0.74661    0.56131    0.00000    2
    4      0.408D-02      0.424D-03      -263.76379378    415.746875    0.73959    0.55382    0.00000    3
    5      0.516D-03      0.136D-03      -263.76386102    415.717064    0.73495    0.55776    0.00000    4
    6      0.201D-03      0.554D-04      -263.76387060    415.735960    0.73466    0.55365    0.00000    5
    7      0.678D-04      0.135D-04      -263.76387150    415.729407    0.73435    0.55512    0.00000    6
    8      0.238D-04      0.545D-05      -263.76387160    415.728885    0.73429    0.55422    0.00000    7
    9      0.700D-05      0.168D-05      -263.76387162    415.729720    0.73431    0.55439    0.00000    8
   10      0.281D-05      0.492D-06      -263.76387162    415.729472    0.73431    0.55434    0.00000    0

 Final occupancy:  13   3

 !RHF STATE 1.1 Energy               -263.763871617792
 Nuclear energy                       110.86249667
 One-electron energy                 -582.49110415
 Two-electron energy                  207.86473586
 Virial quotient                       -1.00146072
 !RHF STATE 1.1 Dipole moment           0.73430608     0.55433867     0.00000000
 Dipole moment /Debye                   1.86629765     1.40889608     0.00000000

 Orbital energies:

         1.1          2.1          3.1          4.1          5.1          6.1          7.1          8.1          9.1         10.1
    -20.624136   -20.623777   -20.581035   -11.437703    -1.505007    -1.451570    -1.372180    -0.776880    -0.718848    -0.702220

        11.1         12.1         13.1         14.1         15.1
     -0.599148    -0.535824    -0.509379     0.024458     0.067145

         1.2          2.2          3.2          4.2          5.2
     -0.735803    -0.688494    -0.518814     0.045115     0.092938


 **********************************************************************************************************************************
 DATASETS  * FILE   NREC   LENGTH (MB)   RECORD NAMES
              1      18        3.72       500      610      700      900      950      970     1000      129      960     1100   
                                          VAR    BASINP    GEOM    SYMINP    ZMAT    AOBASIS   BASIS     P2S    ABASIS      S 
                                         1400     1410     1200     1210     1080     1600     1650     1700   
                                           T        V       H0       H01     AOSYM     SMH    MOLCAS    OPER   

              2       3        0.94       700     1000     2100   
                                         GEOM     BASIS     RHF  

 PROGRAMS   *        TOTAL        HF       INT
 CPU TIMES  *        14.02      4.69      9.22
 REAL TIME  *        16.24 SEC
 DISK USED  *         2.87 GB      
 SF USED    *         0.11 MB      
 GA USED    *         0.00 MB       (max)       0.00 MB       (current)
 **********************************************************************************************************************************


1PROGRAM * CCSD (Closed-shell coupled cluster)     Authors: C. Hampel, H.-J. Werner, 1991, M. Deegan, P.J. Knowles, 1992

                                  CCSD-F12 implementation by  H.-J. Werner, 2007

                   Density fitting integral evaluation by F.R. Manby, 2003,2007, G. Knizia, 2010

 Basis set CC-PVTZ/JKFIT generated.      Number of basis functions:   376 
 Basis set AUG-CC-PVTZ/MP2FIT generated. Number of basis functions:   516 

 Convergence thresholds:  THRVAR = 1.00D-08  THRDEN = 1.00D-06

 CCSD(T)     terms to be evaluated (factor= 1.000)


 Number of core orbitals:           4 (   4   0 )
 Number of closed-shell orbitals:  12 (   9   3 )
 Number of external orbitals:     214 ( 130  84 )

 Molecular orbitals read from record     2100.2  Type=RHF/CANONICAL (state 1.1)

 MP2-F12 correlation treatment (H.-J. Werner, 2006)
 --------------------------------------------------

 Using MP2-F12 with ansatz 3C(FIX)

 Using projected zeroth-order Hamiltonian (+Z)

 FOCKRIB=T FOCKRIC=T FOCKRIP=T CABSP=T CABSA=T CABSK=T CABSF=T GBC=F EBC=F DMAT=T NOFIK=T NOPAO=1 SOLVE=-1  USEPAO=0
 EXCH_A= T EXCH_B= F EXCH_C= F EXCH_P= F
 
 Geminal basis:    OPTFULL  GEM_TYPE=SLATER  BETA=1.0  NGEM=6

 Optimizing Gaussian exponents for each gem_beta

 Geminal optimization for beta= 1.0000
 Weight function:   m=0, omega= 1.4646

 Augmented Hessian optimization of geminal fit. Trust ratio= 0.40000
 Convergence reached after   2 iterations. Final gradient= 8.24D-16, Step= 4.32D-06, Delta= 1.28D-09
 
 Alpha:                 0.19532     0.81920     2.85917     9.50073    35.69989   197.79328
 Coeff:                 0.27070     0.30552     0.18297     0.10986     0.06810     0.04224
 

 Symmetry turned off. Reference energy:       -263.763871617792

 All pairs explicitly correlated. Number of r12-pairs:           78
 
 AO(A)-basis ORBITAL           loaded. Number of functions:     230
 RI(R)-basis CC-PVTZ/JKFIT     loaded. Number of functions:     376
 DF-basis CC-PVTZ/JKFIT        loaded. Number of functions:     376

 Screening thresholds:   THRAO=  1.00D-10  THRMO=  1.00D-09  THRPROD=  1.00D-09
                         THRSW=  1.00D-05  THROV=  1.00D-12  THRF12=   1.00D-08

 CPU time for Fock operators                      1.11 sec
 
 Construction of ABS:
 Smallest eigenvalue of S          2.42E-04  (threshold= 1.00E-08)
 Ratio eigmin/eigmax               1.73E-06  (threshold= 1.00E-09)
 Smallest eigenvalue of S kept     2.42E-04  (threshold= 2.42E-04, 0 functions deleted, 376 kept)
 
 Construction of CABS:
 Smallest eigenvalue of S          2.24E-08  (threshold= 1.00E-08)
 Ratio eigmin/eigmax               2.24E-08  (threshold= 1.00E-09)
 Smallest eigenvalue of S kept     2.24E-08  (threshold= 2.24E-08, 0 functions deleted, 376 kept)
 
 CPU time for CABS singles                        0.18 sec

 CABS-singles contribution of  -0.01593391 patched into reference energy.
 New reference energy        -263.77980552
 
 AO(A)-basis ORBITAL           loaded. Number of functions:     230
 RI(R)-basis CC-PVTZ/JKFIT     loaded. Number of functions:     376
 DF-basis AUG-CC-PVTZ/MP2FIT   loaded. Number of functions:     516

 Screening thresholds:   THRAO=  1.00D-10  THRMO=  1.00D-09  THRPROD=  1.00D-09
                         THRSW=  1.00D-05  THROV=  1.00D-12  THRF12=   1.00D-08

 CPU time for 3-index integral evaluation         3.49 sec
 CPU time for first  half transformation          0.28 sec (10213.3 MFLOP/sec)
 CPU time for second half transformation          0.02 sec ( 5118.1 MFLOP/sec)
 CPU time for sorting                             0.19 sec
 CPU time for fitting                             0.06 sec (22933.5 MFLOP/sec)
 CPU time for tilde quantities                    0.08 sec (23111.0 MFLOP/sec)
 CPU time for assembly                            0.89 sec (26748.1 MFLOP/sec)
 CPU time for tranop_f12                          1.00 sec (30654.4 MFLOP/sec)
 CPU time for f12 integrals (total)               8.35 sec
 F12-matrices built in  3 passes.
 F12-matrices built in  3 passes.
 F12-matrices built in  3 passes.
 F12-matrices built in  3 passes.
 FC-matrix built in  3 passes.
 CPU time for f12 matrices (total)                0.60 sec

 Diagonal F12 approximation with fixed coefficients:  TSING= 0.500,  TTRIP= 0.250 (scaled by -1/beta)

 DF-MP2-F12 energy corrections:
 ------------------------------
 Approx.                                    Singlet             Triplet             Total
 DF-MP2-F12/3*C(DX,FIX)                -0.097407605976     -0.017082126994     -0.114489732970
 DF-MP2-F12/3*C(FIX)                   -0.079787696861     -0.013566166166     -0.093353863026
 DF-MP2-F12/3C(FIX)                    -0.080158440408     -0.013612950350     -0.093771390758

 DF-MP2-F12 correlation energies:
 --------------------------------
 Approx.                                    Singlet             Triplet             Ecorr            Total Energy
 DF-MP2                                -0.538182551844     -0.346240919193     -0.884423471038   -264.664228994529
 DF-MP2-F12/3*C(DX,FIX)                -0.635590157820     -0.363323046187     -0.998913204007   -264.778718727499
 DF-MP2-F12/3*C(FIX)                   -0.617970248705     -0.359807085359     -0.977777334064   -264.757582857555
 DF-MP2-F12/3C(FIX)                    -0.618340992252     -0.359853869543     -0.978194861796   -264.758000385287

 SCS-DF-MP2 energies (F_SING= 1.20000  F_TRIP= 0.62222  F_PARALLEL= 0.33333):
 ----------------------------------------------------------------------------
 SCS-DF-MP2                            -0.861257856378   -264.641063379869
 SCS-DF-MP2-F12/3*C(DX,FIX)            -0.988775862567   -264.768581386059
 SCS-DF-MP2-F12/3*C(FIX)               -0.965444262669   -264.745249786161
 SCS-DF-MP2-F12/3C(FIX)                -0.965918265085   -264.745723788577

 Symmetry restored.
 Symmetry transformation completed.

 Number of N-1 electron functions:              12
 Number of N-2 electron functions:              78
 Number of singly external CSFs:              1422
 Number of doubly external CSFs:           1668984
 Total number of CSFs:                     1670407

 Pair and operator lists are different

 Length of J-op  integral file:             466.33 MB
 Length of K-op  integral file:             525.76 MB
 Length of 3-ext integral record:             0.00 MB

 Memory could be reduced to 76.19 Mwords without degradation in triples

 Integral transformation finished. Total CPU:   5.48 sec, npass=  1  Memory used:  26.50 MW

 Reference energy:                   -263.77980552

 Adding F12 terms to K(Cij), methodcc=6,  factor=1.0

 ITER.      SQ.NORM     CORR.ENERGY   TOTAL ENERGY   ENERGY CHANGE        DEN1      VAR(S)    VAR(P)  DIIS     TIME
   1      1.20196888    -0.86616001  -264.64596554     0.01827137     0.04682558  0.73D-02  0.55D-02  1  1    19.73
   2      1.21631662    -0.86200351  -264.64180903     0.00415651    -0.02021772  0.91D-04  0.59D-03  2  2    23.35
   3      1.22169028    -0.86212841  -264.64193393    -0.00012490    -0.00230641  0.14D-03  0.32D-04  3  3    26.97
   4      1.22453207    -0.86199488  -264.64180040     0.00013353    -0.00141749  0.84D-05  0.41D-05  4  4    30.78
   5      1.22559025    -0.86195820  -264.64176372     0.00003668    -0.00036760  0.74D-06  0.29D-06  5  5    35.03
   6      1.22576361    -0.86193072  -264.64173624     0.00002748    -0.00000800  0.58D-07  0.30D-07  6  6    38.66
   7      1.22580003    -0.86192764  -264.64173316     0.00000307    -0.00000699  0.78D-08  0.44D-08  6  2    42.30
   8      1.22580183    -0.86192728  -264.64173280     0.00000036     0.00000190  0.69D-09  0.46D-09  6  1    45.91
   9      1.22580258    -0.86192740  -264.64173293    -0.00000012     0.00000083  0.11D-09  0.36D-10  6  4    49.60

 Norm of t1 vector:      0.10739838      S-energy:    -0.00000013      T1 diagnostic:  0.01550162
                                                                       D1 diagnostic:  0.04696643

 Adding energy correction from Wij-K(Fij), methodcc=6  factor=1.0
 
  CCSD correlation energy              -0.861927402016
  MP2-F12 correction (uncoupled)       -0.092606227610
  C*T doubles correction               -0.001476080334
  f12b correction                       0.015426136231


 Total CPU time for triples:     93.52 sec


 RESULTS
 =======

  Reference energy                   -263.763871617792
  F12 singles correction               -0.015933905699

 F12 singles corrections added to reference energy

  New reference energy               -263.779805523491

  F12a singlet correction              -0.080363180161
  F12a triplet correction              -0.013719127783
  F12a total correction                -0.094082307944

 F12a corrections for ansatz F12/3C(FIX) added to CCSD energy
 
  CCSD-F12a singlet pair energy        -0.641794622811
  CCSD-F12a triplet pair energy        -0.314214952294
  CCSD-F12a correlation energy         -0.956009709959

  Triples (T) contribution             -0.038251473008
  Total correlation energy             -0.994261182967

  CCSD-F12a total energy             -264.735815233451
  CCSD[T]-F12a energy                -264.776627664770
  CCSD-T-F12a energy                 -264.773135810396
 !CCSD(T)-F12a total energy          -264.774066706459

 F12b corrections for ansatz F12/3C(FIX) added to CCSD(T)-F12a energy

  CCSD-F12b singlet pair energy        -0.627613009049
  CCSD-F12b triplet pair energy        -0.312970429825
  CCSD-F12b correlation energy         -0.940583573728

  Triples (T) contribution             -0.038251473008
  Total correlation energy             -0.978835046736

  CCSD-F12b total energy             -264.720389097220
  CCSD[T]-F12b energy                -264.761201528539
  CCSD-T-F12b energy                 -264.757709674165
 !CCSD(T)-F12b total energy          -264.758640570228

 Timing summary (sec):

 STEP                 CPU(USER)    SYS     CPU(TOT)    WALL
 Transformation          5.52      0.58      6.10      6.24
 CCSD iterations        33.30      1.85     35.15     35.31
 Triples                93.52      1.98     95.50     95.47
 MP2-F12                10.79      1.39     12.18     12.18
 F12b energy             2.48      0.07      2.55      2.56

 Program statistics:

 Available memory in ccsd:                99998934
 Min. memory needed in ccsd:               4419579
 Max. memory used in ccsd:                 5922321
 Max. memory used in cckext:               6231049 (10 integral passes)



 **********************************************************************************************************************************
 DATASETS  * FILE   NREC   LENGTH (MB)   RECORD NAMES
              1      20      268.24       500      610      700      900      950      970     1000      129      960     1100   
                                          VAR    BASINP    GEOM    SYMINP    ZMAT    AOBASIS   BASIS     P2S    ABASIS      S 
                                         1400     1410     1200     1210     1080     1600     1650     1700      960(1)  1380   
                                           T        V       H0       H01     AOSYM     SMH    MOLCAS    OPER    ABASIS    JKOP   

              2       5        1.51       700     1000     2100     7360     7350   
                                         GEOM     BASIS     RHF    F12ABS    EF12   

 PROGRAMS   *        TOTAL   CCSD(T)        HF       INT
 CPU TIMES  *       159.73    145.71      4.69      9.22
 REAL TIME  *       168.36 SEC
 DISK USED  *         3.31 GB      
 SF USED    *         1.52 GB      
 GA USED    *         2.40 MB       (max)       0.00 MB       (current)
 **********************************************************************************************************************************

     CCSD(T)-F12        HF-SCF  
   -264.75864057   -263.76387162
 **********************************************************************************************************************************
 Variable memory released
