
 Primary working directories    : /scratch/kee
 Secondary working directories  : /scratch/kee
 Wavefunction directory         : /home/kee/wfu/
 Main file repository           : /scratch/kee/

 ARCHNAME  : Linux/x86_64
 FC        : /opt/intel/composer_xe_2015.0.090/bin/intel64/ifort
 FCVERSION : 15.0.0
 BLASLIB   : -L/opt/intel/mkl/lib/intel64 -lmkl_intel_ilp64 -lmkl_sequential -lmkl_core
 id        : emory

 Nodes     nprocs
 node17       3
 Number of processes for MPI-2 version of Molpro:   nprocs(total)=    4   nprocs(compute)=    3   nprocs(helper)=    1
 ga_uses_ma=false, calling ma_init with nominal heap.
 GA-space will be limited to   8.0 MW (determined by -G option)

 Using customized tuning parameters: mindgm=7; mindgv=32; mindgc=1; mindgr=1; noblas=0; mincuda=1000; minvec=7
 default implementation of scratch files=sf  

 ***,co2h2o
 memory,100,m
 basis avtz
 geomtype = xyz
 geometry = {
 6
       0.00000000
 O     0.00351000    1.16210700    0.00000000
 O     0.00351000   -1.16210700    0.00000000
 O    14.36968000    0.00000000    0.00000000
 H    14.95589800    0.00000000    0.75853100
 H    14.95589800    0.00000000   -0.75853100
 C     0.01968000    0.00000000    0.00000000
 }
 hf
 ccsd(t)-f12
 ---

 Variables initialized (665), CPU time= 0.01 sec
 Commands  initialized (462), CPU time= 0.00 sec, 486 directives.
 Default parameters read. Elapsed time= 0.04 sec

 Checking input...
 Passed
1


                                         ***  PROGRAM SYSTEM MOLPRO  ***
                         Copyright, University College Cardiff Consultants Limited, 2008

                                    Version 2010.1 linked 9 Dec 2014 15:06:28 


 **********************************************************************************************************************************
 LABEL *   co2h2o                                                                        
 Linux-2.6.32-504.el6.x86_64/node17(x86_64) 64 bit mpp version                           DATE: 12-Dec-16          TIME: 14:15:24  
 **********************************************************************************************************************************

 Patch level:      19
 **********************************************************************************************************************************

 Variable memory set to  100000000 words,  buffer space   230000 words

 SETTING BASIS          =    AVTZ
 SETTING GEOMTYPE       =    XYZ

Geometry recognized as XYZ



 Recomputing integrals since basis changed


 Using spherical harmonics

 Library entry O      S aug-cc-pVTZ          selected for orbital group  1
 Library entry O      P aug-cc-pVTZ          selected for orbital group  1
 Library entry O      D aug-cc-pVTZ          selected for orbital group  1
 Library entry O      F aug-cc-pVTZ          selected for orbital group  1
 Library entry H      S aug-cc-pVTZ          selected for orbital group  2
 Library entry H      P aug-cc-pVTZ          selected for orbital group  2
 Library entry H      D aug-cc-pVTZ          selected for orbital group  2
 Library entry C      S aug-cc-pVTZ          selected for orbital group  3
 Library entry C      P aug-cc-pVTZ          selected for orbital group  3
 Library entry C      D aug-cc-pVTZ          selected for orbital group  3
 Library entry C      F aug-cc-pVTZ          selected for orbital group  3

1PROGRAM * SEWARD (Integral evaluation for generally contracted gaussian basis sets)     Author: Roland Lindh, 1990

 Geometry written to block  1 of record 700


 Point group  C2v 



 ATOMIC COORDINATES

 NR  ATOM    CHARGE       X              Y              Z

   1  O       8.00    0.006632939    2.196063965    0.000000000
   2  O       8.00    0.006632939   -2.196063965    0.000000000
   3  O       8.00   27.154759796    0.000000000    0.000000000
   4  H       1.00   28.262551269    0.000000000    1.433415852
   5  H       1.00   28.262551269    0.000000000   -1.433415852
   6  C       6.00    0.037189810    0.000000000    0.000000000

 Bond lengths in Bohr (Angstrom)

 1-6  2.196276545  2-6  2.196276545  3-4  1.811596797  3-5  1.811596797
     (1.162219492)     (1.162219492)     (0.958655737)     (0.958655737)

 Bond angles

  1-6-2  178.40563223   4-3-5  104.60391356

 NUCLEAR CHARGE:                   32
 NUMBER OF PRIMITIVE AOS:         322
 NUMBER OF SYMMETRY AOS:          282
 NUMBER OF CONTRACTIONS:          230   (  84A1  +  59B1  +  54B2  +  33A2  )
 NUMBER OF CORE ORBITALS:           4   (   3A1  +   1B1  +   0B2  +   0A2  )
 NUMBER OF VALENCE ORBITALS:       18   (   8A1  +   5B1  +   4B2  +   1A2  )


 NUCLEAR REPULSION ENERGY   75.48452720

 EXTRA SYMMETRY OF AOS IN SYMMETRY 4:   1 1 1 1 1 1 1 1 1 1   1 1 1 1 1 1 2 2 2 2   2 2 2 2 2 2 2 2 1 1   1 1 1

 Eigenvalues of metric

         1 0.385E-03 0.420E-03 0.903E-03 0.186E-02 0.317E-02 0.321E-02 0.405E-02 0.540E-02
         2 0.349E-03 0.922E-03 0.175E-02 0.348E-02 0.596E-02 0.744E-02 0.205E-01 0.216E-01
         3 0.394E-03 0.167E-02 0.318E-02 0.509E-02 0.622E-02 0.100E-01 0.136E-01 0.156E-01
         4 0.348E-02 0.124E-01 0.296E-01 0.363E-01 0.561E-01 0.679E-01 0.110E+00 0.139E+00


 Contracted 2-electron integrals neglected if value below      1.0D-11
 AO integral compression algorithm  1   Integral accuracy      1.0D-11

     130.548 MB (compressed) written to integral file ( 35.6%)

     Node minimum: 35.914 MB, node maximum: 48.497 MB


 NUMBER OF SORTED TWO-ELECTRON INTEGRALS:   29979201.     BUFFER LENGTH:  32768
 NUMBER OF SEGMENTS:   2  SEGMENT LENGTH:   15996954      RECORD LENGTH: 524288

 Memory used in sort:      16.55 MW

 SORT1 READ    45803994. AND WROTE     7803697. INTEGRALS IN     24 RECORDS. CPU TIME:     0.79 SEC, REAL TIME:     0.88 SEC
 SORT2 READ    23319408. AND WROTE    89930217. INTEGRALS IN    555 RECORDS. CPU TIME:     0.34 SEC, REAL TIME:     0.44 SEC

 Node minimum:    29974277.  Node maximum:    29979201. integrals

 OPERATOR DM      FOR CENTER  0  COORDINATES:    0.000000    0.000000    0.000000


 **********************************************************************************************************************************
 DATASETS  * FILE   NREC   LENGTH (MB)   RECORD NAMES
              1      18        3.23       500      610      700      900      950      970     1000      129      960     1100   
                                          VAR    BASINP    GEOM    SYMINP    ZMAT    AOBASIS   BASIS     P2S    ABASIS      S 
                                         1400     1410     1200     1210     1080     1600     1650     1700   
                                           T        V       H0       H01     AOSYM     SMH    MOLCAS    OPER   

 PROGRAMS   *        TOTAL       INT
 CPU TIMES  *         2.09      2.02
 REAL TIME  *         2.36 SEC
 DISK USED  *       421.23 MB      
 GA USED    *         0.00 MB       (max)       0.00 MB       (current)
 **********************************************************************************************************************************

1PROGRAM * RHF-SCF (CLOSED SHELL)       Authors: W. Meyer, H.-J. Werner


 NUMBER OF ELECTRONS:      16+   16-
 CONVERGENCE THRESHOLDS:    1.00E-05 (Density)    1.00E-07 (Energy)
 MAX. NUMBER OF ITERATIONS:       60
 INTERPOLATION TYPE:            DIIS
 INTERPOLATION STEPS:              2 (START)      1 (STEP)
 LEVEL SHIFTS:                  0.00 (CLOSED)  0.00 (OPEN) 



 Orbital guess generated from atomic densities. Full valence occupancy:   11   6   4   1

 Molecular orbital dump at record        2100.2

 Initial alpha occupancy:   8   5   2   1
 Initial beta  occupancy:   8   5   2   1
 Wave function symmetry:    1

 ITERATION    DDIFF          GRAD             ENERGY        2-EL.EN.            DIPOLE MOMENTS         DIIS
    1      0.000D+00      0.000D+00      -263.66017121    346.442013    1.18059    0.00000    0.00000    0
    2      0.000D+00      0.889D-02      -263.72549179    341.895202    0.68020    0.00000    0.00000    1
    3      0.143D-01      0.604D-02      -263.76889306    344.452735    0.80467    0.00000    0.00000    2
    4      0.588D-02      0.568D-03      -263.76938830    344.239368    0.80834    0.00000    0.00000    3
    5      0.694D-03      0.165D-03      -263.76944633    344.242518    0.80282    0.00000    0.00000    4
    6      0.258D-03      0.666D-04      -263.76945350    344.256782    0.80352    0.00000    0.00000    5
    7      0.854D-04      0.163D-04      -263.76945423    344.248494    0.80307    0.00000    0.00000    6
    8      0.280D-04      0.359D-05      -263.76945427    344.249792    0.80308    0.00000    0.00000    7
    9      0.768D-05      0.121D-05      -263.76945428    344.249604    0.80305    0.00000    0.00000    0

 Final occupancy:   8   5   2   1

 !RHF STATE 1.1 Energy               -263.769454276491
 Nuclear energy                        75.48452720
 One-electron energy                 -511.37878338
 Two-electron energy                  172.12480190
 Virial quotient                       -1.00182643
 !RHF STATE 1.1 Dipole moment           0.80304809     0.00000000     0.00000000
 Dipole moment /Debye                   2.04101097     0.00000000     0.00000000

 Orbital energies:

         1.1          2.1          3.1          4.1          5.1          6.1          7.1          8.1          9.1         10.1
    -20.652408   -20.567529   -11.461222    -1.530066    -1.352929    -0.800311    -0.714128    -0.584627     0.029325     0.048348

         1.2          2.2          3.2          4.2          5.2          6.2          7.2
    -20.652454    -1.476982    -0.742547    -0.543760    -0.510340     0.079849     0.158438

         1.3          2.3          3.3          4.3
     -0.717368    -0.714138     0.047572     0.073868

         1.4          2.4          3.4
     -0.543780     0.164734     0.265119


 **********************************************************************************************************************************
 DATASETS  * FILE   NREC   LENGTH (MB)   RECORD NAMES
              1      18        3.25       500      610      700      900      950      970     1000      129      960     1100   
                                          VAR    BASINP    GEOM    SYMINP    ZMAT    AOBASIS   BASIS     P2S    ABASIS      S 
                                         1400     1410     1200     1210     1080     1600     1650     1700   
                                           T        V       H0       H01     AOSYM     SMH    MOLCAS    OPER   

              2       3        0.67       700     1000     2100   
                                         GEOM     BASIS     RHF  

 PROGRAMS   *        TOTAL        HF       INT
 CPU TIMES  *         2.93      0.84      2.02
 REAL TIME  *         3.24 SEC
 DISK USED  *       438.62 MB      
 SF USED    *         0.06 MB      
 GA USED    *         0.00 MB       (max)       0.00 MB       (current)
 **********************************************************************************************************************************


1PROGRAM * CCSD (Closed-shell coupled cluster)     Authors: C. Hampel, H.-J. Werner, 1991, M. Deegan, P.J. Knowles, 1992

                                  CCSD-F12 implementation by  H.-J. Werner, 2007

                   Density fitting integral evaluation by F.R. Manby, 2003,2007, G. Knizia, 2010

 Basis set CC-PVTZ/JKFIT generated.      Number of basis functions:   376 
 Basis set AUG-CC-PVTZ/MP2FIT generated. Number of basis functions:   516 

 Convergence thresholds:  THRVAR = 1.00D-08  THRDEN = 1.00D-06

 CCSD(T)     terms to be evaluated (factor= 1.000)


 Number of core orbitals:           4 (   3   1   0   0 )
 Number of closed-shell orbitals:  12 (   5   4   2   1 )
 Number of external orbitals:     214 (  76  54  52  32 )

 Molecular orbitals read from record     2100.2  Type=RHF/CANONICAL (state 1.1)

 MP2-F12 correlation treatment (H.-J. Werner, 2006)
 --------------------------------------------------

 Using MP2-F12 with ansatz 3C(FIX)

 Using projected zeroth-order Hamiltonian (+Z)

 FOCKRIB=T FOCKRIC=T FOCKRIP=T CABSP=T CABSA=T CABSK=T CABSF=T GBC=F EBC=F DMAT=T NOFIK=T NOPAO=1 SOLVE=-1  USEPAO=0
 EXCH_A= T EXCH_B= F EXCH_C= F EXCH_P= F
 
 Geminal basis:    OPTFULL  GEM_TYPE=SLATER  BETA=1.0  NGEM=6

 Optimizing Gaussian exponents for each gem_beta

 Geminal optimization for beta= 1.0000
 Weight function:   m=0, omega= 1.4646

 Augmented Hessian optimization of geminal fit. Trust ratio= 0.40000
 Convergence reached after   2 iterations. Final gradient= 8.24D-16, Step= 4.32D-06, Delta= 1.28D-09
 
 Alpha:                 0.19532     0.81920     2.85917     9.50073    35.69989   197.79328
 Coeff:                 0.27070     0.30552     0.18297     0.10986     0.06810     0.04224
 

 Symmetry turned off. Reference energy:       -263.769454276491

 All pairs explicitly correlated. Number of r12-pairs:           78
 
 AO(A)-basis ORBITAL           loaded. Number of functions:     230
 RI(R)-basis CC-PVTZ/JKFIT     loaded. Number of functions:     376
 DF-basis CC-PVTZ/JKFIT        loaded. Number of functions:     376

 Screening thresholds:   THRAO=  1.00D-10  THRMO=  1.00D-09  THRPROD=  1.00D-09
                         THRSW=  1.00D-05  THROV=  1.00D-12  THRF12=   1.00D-08

 CPU time for Fock operators                      0.83 sec
 
 Construction of ABS:
 Smallest eigenvalue of S          2.57E-04  (threshold= 1.00E-08)
 Ratio eigmin/eigmax               1.83E-06  (threshold= 1.00E-09)
 Smallest eigenvalue of S kept     2.57E-04  (threshold= 2.57E-04, 0 functions deleted, 376 kept)
 
 Construction of CABS:
 Smallest eigenvalue of S          2.30E-08  (threshold= 1.00E-08)
 Ratio eigmin/eigmax               2.30E-08  (threshold= 1.00E-09)
 Smallest eigenvalue of S kept     2.30E-08  (threshold= 2.30E-08, 0 functions deleted, 376 kept)
 
 CPU time for CABS singles                        0.16 sec

 CABS-singles contribution of  -0.01592472 patched into reference energy.
 New reference energy        -263.78537899
 
 AO(A)-basis ORBITAL           loaded. Number of functions:     230
 RI(R)-basis CC-PVTZ/JKFIT     loaded. Number of functions:     376
 DF-basis AUG-CC-PVTZ/MP2FIT   loaded. Number of functions:     516

 Screening thresholds:   THRAO=  1.00D-10  THRMO=  1.00D-09  THRPROD=  1.00D-09
                         THRSW=  1.00D-05  THROV=  1.00D-12  THRF12=   1.00D-08

 CPU time for 3-index integral evaluation         1.31 sec
 CPU time for first  half transformation          0.18 sec ( 6692.9 MFLOP/sec)
 CPU time for second half transformation          0.03 sec ( 1902.8 MFLOP/sec)
 CPU time for sorting                             0.09 sec
 CPU time for fitting                             0.03 sec (46435.0 MFLOP/sec)
 CPU time for tilde quantities                    0.05 sec (36977.6 MFLOP/sec)
 CPU time for assembly                            0.77 sec (33191.1 MFLOP/sec)
 CPU time for tranop_f12                          0.85 sec (35115.7 MFLOP/sec)
 CPU time for f12 integrals (total)               5.26 sec
 F12-matrices built in  3 passes.
 F12-matrices built in  3 passes.
 F12-matrices built in  3 passes.
 F12-matrices built in  3 passes.
 FC-matrix built in  3 passes.
 CPU time for f12 matrices (total)                0.48 sec

 Diagonal F12 approximation with fixed coefficients:  TSING= 0.500,  TTRIP= 0.250 (scaled by -1/beta)

 DF-MP2-F12 energy corrections:
 ------------------------------
 Approx.                                    Singlet             Triplet             Total
 DF-MP2-F12/3*C(DX,FIX)                -0.097450913369     -0.016933929815     -0.114384843184
 DF-MP2-F12/3*C(FIX)                   -0.079865569468     -0.013395977312     -0.093261546780
 DF-MP2-F12/3C(FIX)                    -0.080226682621     -0.013419291848     -0.093645974469

 DF-MP2-F12 correlation energies:
 --------------------------------
 Approx.                                    Singlet             Triplet             Ecorr            Total Energy
 DF-MP2                                -0.537748786571     -0.343086246203     -0.880835032774   -264.666214026987
 DF-MP2-F12/3*C(DX,FIX)                -0.635199699940     -0.360020176017     -0.995219875958   -264.780598870171
 DF-MP2-F12/3*C(FIX)                   -0.617614356040     -0.356482223515     -0.974096579554   -264.759475573768
 DF-MP2-F12/3C(FIX)                    -0.617975469192     -0.356505538051     -0.974481007243   -264.759860001456

 SCS-DF-MP2 energies (F_SING= 1.20000  F_TRIP= 0.62222  F_PARALLEL= 0.33333):
 ----------------------------------------------------------------------------
 SCS-DF-MP2                            -0.858774430411   -264.644153424625
 SCS-DF-MP2-F12/3*C(DX,FIX)            -0.986252193895   -264.771631188108
 SCS-DF-MP2-F12/3*C(FIX)               -0.962948388545   -264.748327382759
 SCS-DF-MP2-F12/3C(FIX)                -0.963396231151   -264.748775225365

 Symmetry restored.
 Symmetry transformation completed.

 Number of N-1 electron functions:              12
 Number of N-2 electron functions:              78
 Number of singly external CSFs:               732
 Number of doubly external CSFs:            836016
 Total number of CSFs:                      836749

 Pair and operator lists are different

 Length of J-op  integral file:             462.26 MB
 Length of K-op  integral file:             502.03 MB
 Length of 3-ext integral record:             0.00 MB

 Memory could be reduced to 38.69 Mwords without degradation in triples

 Integral transformation finished. Total CPU:   1.48 sec, npass=  1  Memory used:   6.07 MW

 Reference energy:                   -263.78537899

 Adding F12 terms to K(Cij), methodcc=6,  factor=1.0

 ITER.      SQ.NORM     CORR.ENERGY   TOTAL ENERGY   ENERGY CHANGE        DEN1      VAR(S)    VAR(P)  DIIS     TIME
   1      1.20216460    -0.86278146  -264.64816046     0.01807001     0.04670947  0.72D-02  0.56D-02  1  1     9.37
   2      1.21648021    -0.85855260  -264.64393160     0.00422886    -0.02015686  0.86D-04  0.59D-03  2  2    10.21
   3      1.22184195    -0.85864861  -264.64402760    -0.00009600    -0.00236442  0.13D-03  0.32D-04  3  3    11.08
   4      1.22464442    -0.85852065  -264.64389965     0.00012795    -0.00141159  0.76D-05  0.41D-05  4  4    11.93
   5      1.22567468    -0.85848294  -264.64386193     0.00003772    -0.00036650  0.55D-06  0.29D-06  5  5    12.80
   6      1.22583685    -0.85845607  -264.64383507     0.00002686    -0.00000805  0.40D-07  0.24D-07  6  6    13.68
   7      1.22586621    -0.85845365  -264.64383264     0.00000242    -0.00000622  0.25D-08  0.40D-08  6  4    14.55
   8      1.22586651    -0.85845316  -264.64383215     0.00000049     0.00000195  0.39D-09  0.27D-09  6  1    15.42
   9      1.22586712    -0.85845323  -264.64383222    -0.00000007     0.00000056  0.25D-10  0.21D-10  6  2    16.28

 Norm of t1 vector:      0.10597432      S-energy:    -0.00000003      T1 diagnostic:  0.01529608
                                                                       D1 diagnostic:  0.04494571

 Adding energy correction from Wij-K(Fij), methodcc=6  factor=1.0
 
  CCSD correlation energy              -0.858453226164
  MP2-F12 correction (uncoupled)       -0.092488555028
  C*T doubles correction               -0.001476019909
  f12b correction                       0.015406917727


 Total CPU time for triples:     33.30 sec


 RESULTS
 =======

  Reference energy                   -263.769454276491
  F12 singles correction               -0.015924717722

 F12 singles corrections added to reference energy

  New reference energy               -263.785378994213

  F12a singlet correction              -0.080426693740
  F12a triplet correction              -0.013537881197
  F12a total correction                -0.093964574937

 F12a corrections for ansatz F12/3C(FIX) added to CCSD energy
 
  CCSD-F12a singlet pair energy        -0.641912630049
  CCSD-F12a triplet pair energy        -0.310505144211
  CCSD-F12a correlation energy         -0.952417801101

  Triples (T) contribution             -0.037643125917
  Total correlation energy             -0.990060927018

  CCSD-F12a total energy             -264.737796795314
  CCSD[T]-F12a energy                -264.777984386361
  CCSD-T-F12a energy                 -264.774501985290
 !CCSD(T)-F12a total energy          -264.775439921231

 F12b corrections for ansatz F12/3C(FIX) added to CCSD(T)-F12a energy

  CCSD-F12b singlet pair energy        -0.627728994684
  CCSD-F12b triplet pair energy        -0.309281861849
  CCSD-F12b correlation energy         -0.937010883374

  Triples (T) contribution             -0.037643125917
  Total correlation energy             -0.974654009290

  CCSD-F12b total energy             -264.722389877587
  CCSD[T]-F12b energy                -264.762577468634
  CCSD-T-F12b energy                 -264.759095067562
 !CCSD(T)-F12b total energy          -264.760033003504

 Timing summary (sec):

 STEP                 CPU(USER)    SYS     CPU(TOT)    WALL
 Transformation          1.49      0.26      1.75      1.76
 CCSD iterations         7.73      0.63      8.36      8.36
 Triples                33.30      1.04     34.34     34.63
 MP2-F12                 7.08      1.04      8.12      8.11
 F12b energy             0.47      0.01      0.48      0.48

 Program statistics:

 Available memory in ccsd:                99998934
 Min. memory needed in ccsd:               2244783
 Max. memory used in ccsd:                 3005571
 Max. memory used in cckext:               2769663 (10 integral passes)



 **********************************************************************************************************************************
 DATASETS  * FILE   NREC   LENGTH (MB)   RECORD NAMES
              1      20      137.19       500      610      700      900      950      970     1000      129      960     1100   
                                          VAR    BASINP    GEOM    SYMINP    ZMAT    AOBASIS   BASIS     P2S    ABASIS      S 
                                         1400     1410     1200     1210     1080     1600     1650     1700      960(1)  1380   
                                           T        V       H0       H01     AOSYM     SMH    MOLCAS    OPER    ABASIS    JKOP   

              2       5        0.97       700     1000     2100     7360     7350   
                                         GEOM     BASIS     RHF    F12ABS    EF12   

 PROGRAMS   *        TOTAL   CCSD(T)        HF       INT
 CPU TIMES  *        53.03     50.10      0.84      2.02
 REAL TIME  *        56.80 SEC
 DISK USED  *       660.29 MB      
 SF USED    *         1.33 GB      
 GA USED    *         2.40 MB       (max)       0.00 MB       (current)
 **********************************************************************************************************************************

     CCSD(T)-F12        HF-SCF  
   -264.76003300   -263.76945428
 **********************************************************************************************************************************
 Variable memory released
