
 Primary working directories    : /scratch/kee
 Secondary working directories  : /scratch/kee
 Wavefunction directory         : /home/kee/wfu/
 Main file repository           : /scratch/kee/

 ARCHNAME  : Linux/x86_64
 FC        : /opt/intel/composer_xe_2015.0.090/bin/intel64/ifort
 FCVERSION : 15.0.0
 BLASLIB   : -L/opt/intel/mkl/lib/intel64 -lmkl_intel_ilp64 -lmkl_sequential -lmkl_core
 id        : emory

 Nodes     nprocs
 node17       3
 Number of processes for MPI-2 version of Molpro:   nprocs(total)=    4   nprocs(compute)=    3   nprocs(helper)=    1
 ga_uses_ma=false, calling ma_init with nominal heap.
 GA-space will be limited to   8.0 MW (determined by -G option)

 Using customized tuning parameters: mindgm=7; mindgv=32; mindgc=1; mindgr=1; noblas=0; mincuda=1000; minvec=7
 default implementation of scratch files=sf  

 ***,co2h2o
 memory,100,m
 basis avtz
 geomtype = xyz
 geometry = {
 6
       0.00000777
 O    10.97257393   -1.10347931    0.00000000
 O    11.76744404    1.08065151   -0.00000000
 O     2.54356282    0.00000000    0.00000000
 H     1.79556774    0.58340495    0.10287003
 H     3.29598802    0.58686026    0.10347930
 C    11.34356282    0.00000000    0.00000000
 }
 hf
 ccsd(t)-f12
 ---

 Variables initialized (665), CPU time= 0.01 sec
 Commands  initialized (462), CPU time= 0.00 sec, 486 directives.
 Default parameters read. Elapsed time= 0.04 sec

 Checking input...
 Passed
1


                                         ***  PROGRAM SYSTEM MOLPRO  ***
                         Copyright, University College Cardiff Consultants Limited, 2008

                                    Version 2010.1 linked 9 Dec 2014 15:06:28 


 **********************************************************************************************************************************
 LABEL *   co2h2o                                                                        
 Linux-2.6.32-504.el6.x86_64/node17(x86_64) 64 bit mpp version                           DATE: 18-Jan-17          TIME: 20:58:15  
 **********************************************************************************************************************************

 Patch level:      19
 **********************************************************************************************************************************

 Variable memory set to  100000000 words,  buffer space   230000 words

 SETTING BASIS          =    AVTZ
 SETTING GEOMTYPE       =    XYZ

Geometry recognized as XYZ



 Recomputing integrals since basis changed


 Using spherical harmonics

 Library entry O      S aug-cc-pVTZ          selected for orbital group  1
 Library entry O      P aug-cc-pVTZ          selected for orbital group  1
 Library entry O      D aug-cc-pVTZ          selected for orbital group  1
 Library entry O      F aug-cc-pVTZ          selected for orbital group  1
 Library entry H      S aug-cc-pVTZ          selected for orbital group  2
 Library entry H      P aug-cc-pVTZ          selected for orbital group  2
 Library entry H      D aug-cc-pVTZ          selected for orbital group  2
 Library entry C      S aug-cc-pVTZ          selected for orbital group  3
 Library entry C      P aug-cc-pVTZ          selected for orbital group  3
 Library entry C      D aug-cc-pVTZ          selected for orbital group  3
 Library entry C      F aug-cc-pVTZ          selected for orbital group  3

1PROGRAM * SEWARD (Integral evaluation for generally contracted gaussian basis sets)     Author: Roland Lindh, 1990

 Geometry written to block  1 of record 700


 Point group  C1  



 ATOMIC COORDINATES

 NR  ATOM    CHARGE       X              Y              Z

   1  O       8.00   20.735159684   -2.085273688    0.000000000
   2  O       8.00   22.237246502    2.042135397    0.000000000
   3  O       8.00    4.806637128    0.000000000    0.000000000
   4  H       1.00    3.393131279    1.102475579    0.194396184
   5  H       1.00    6.228514690    1.109005169    0.195547537
   6  C       6.00   21.436227084    0.000000000    0.000000000

 Bond lengths in Bohr (Angstrom)

 1-6  2.199968602  2-6  2.193615529  3-4  1.803119814  3-5  1.813799081
     (1.164173245)     (1.160811343)     (0.954169911)     (0.959821135)

 Bond angles

  1-6-2  177.16520951   4-3-5  103.24222917

 NUCLEAR CHARGE:                   32
 NUMBER OF PRIMITIVE AOS:         322
 NUMBER OF SYMMETRY AOS:          282
 NUMBER OF CONTRACTIONS:          230   ( 230A   )
 NUMBER OF CORE ORBITALS:           4   (   4A   )
 NUMBER OF VALENCE ORBITALS:       18   (  18A   )


 NUCLEAR REPULSION ENERGY   80.62892580


 Eigenvalues of metric

         1 0.350E-03 0.371E-03 0.388E-03 0.420E-03 0.903E-03 0.923E-03 0.163E-02 0.176E-02


 Contracted 2-electron integrals neglected if value below      1.0D-11
 AO integral compression algorithm  1   Integral accuracy      1.0D-11

     424.411 MB (compressed) written to integral file ( 17.7%)

     Node minimum: 138.150 MB, node maximum: 144.179 MB


 NUMBER OF SORTED TWO-ELECTRON INTEGRALS:  117629820.     BUFFER LENGTH:  32768
 NUMBER OF SEGMENTS:   8  SEGMENT LENGTH:   15997437      RECORD LENGTH: 524288

 Memory used in sort:      16.55 MW

 SORT1 READ   300624480. AND WROTE    29059388. INTEGRALS IN     86 RECORDS. CPU TIME:     2.40 SEC, REAL TIME:     2.72 SEC
 SORT2 READ    86921906. AND WROTE   352862895. INTEGRALS IN   1581 RECORDS. CPU TIME:     0.98 SEC, REAL TIME:     1.25 SEC

 Node minimum:   117612110.  Node maximum:   117629820. integrals

 OPERATOR DM      FOR CENTER  0  COORDINATES:    0.000000    0.000000    0.000000


 **********************************************************************************************************************************
 DATASETS  * FILE   NREC   LENGTH (MB)   RECORD NAMES
              1      18        4.62       500      610      700      900      950      970     1000      129      960     1100   
                                          VAR    BASINP    GEOM    SYMINP    ZMAT    AOBASIS   BASIS     P2S    ABASIS      S 
                                         1400     1410     1200     1210     1080     1600     1650     1700   
                                           T        V       H0       H01     AOSYM     SMH    MOLCAS    OPER   

 PROGRAMS   *        TOTAL       INT
 CPU TIMES  *         6.25      6.18
 REAL TIME  *         7.17 SEC
 DISK USED  *         1.43 GB      
 GA USED    *         0.00 MB       (max)       0.00 MB       (current)
 **********************************************************************************************************************************

1PROGRAM * RHF-SCF (CLOSED SHELL)       Authors: W. Meyer, H.-J. Werner


 NUMBER OF ELECTRONS:      16+   16-    SPACE SYMMETRY=1    SPIN SYMMETRY=Singlet 
 CONVERGENCE THRESHOLDS:    1.00E-05 (Density)    1.00E-07 (Energy)
 MAX. NUMBER OF ITERATIONS:       60
 INTERPOLATION TYPE:            DIIS
 INTERPOLATION STEPS:              2 (START)      1 (STEP)
 LEVEL SHIFTS:                  0.00 (CLOSED)  0.00 (OPEN) 



 Orbital guess generated from atomic densities. Full valence occupancy:   22

 Molecular orbital dump at record        2100.2

 ITERATION    DDIFF          GRAD             ENERGY        2-EL.EN.            DIPOLE MOMENTS         DIIS
    1      0.000D+00      0.000D+00      -263.65941336    356.620487   -0.06883    1.17032    0.19888    0
    2      0.000D+00      0.469D-02      -263.72494279    352.111337   -0.01186    0.66931    0.11693    1
    3      0.752D-02      0.319D-02      -263.76854006    354.661293   -0.03327    0.79682    0.13652    2
    4      0.310D-02      0.300D-03      -263.76903681    354.448054   -0.03264    0.79881    0.13739    3
    5      0.356D-03      0.875D-04      -263.76909542    354.451372   -0.03225    0.79498    0.13641    4
    6      0.133D-03      0.355D-04      -263.76910270    354.465704   -0.03243    0.79476    0.13656    5
    7      0.444D-04      0.877D-05      -263.76910345    354.457587   -0.03228    0.79484    0.13649    6
    8      0.145D-04      0.216D-05      -263.76910350    354.458634   -0.03241    0.79450    0.13649    7
    9      0.402D-05      0.137D-05      -263.76910350    354.458691   -0.03231    0.79479    0.13648    0

 Final occupancy:  16

 !RHF STATE 1.1 Energy               -263.769103501790
 Nuclear energy                        80.62892580
 One-electron energy                 -521.62737492
 Two-electron energy                  177.22934562
 Virial quotient                       -1.00179886
 !RHF STATE 1.1 Dipole moment          -0.03230598     0.79478624     0.13648366
 Dipole moment /Debye                  -0.08210822     2.02001281     0.34688413

 Orbital energies:

         1.1          2.1          3.1          4.1          5.1          6.1          7.1          8.1          9.1         10.1
    -20.654462   -20.653236   -20.568113   -11.462706    -1.531374    -1.478058    -1.355079    -0.801698    -0.743783    -0.715907

        11.1         12.1         13.1         14.1         15.1         16.1         17.1         18.1
     -0.715388    -0.715383    -0.587889    -0.545077    -0.545028    -0.511161     0.027211     0.040009


 **********************************************************************************************************************************
 DATASETS  * FILE   NREC   LENGTH (MB)   RECORD NAMES
              1      18        4.62       500      610      700      900      950      970     1000      129      960     1100   
                                          VAR    BASINP    GEOM    SYMINP    ZMAT    AOBASIS   BASIS     P2S    ABASIS      S 
                                         1400     1410     1200     1210     1080     1600     1650     1700   
                                           T        V       H0       H01     AOSYM     SMH    MOLCAS    OPER   

              2       3        1.44       700     1000     2100   
                                         GEOM     BASIS     RHF  

 PROGRAMS   *        TOTAL        HF       INT
 CPU TIMES  *        14.51      8.26      6.18
 REAL TIME  *        15.61 SEC
 DISK USED  *         1.46 GB      
 SF USED    *         0.21 MB      
 GA USED    *         0.00 MB       (max)       0.00 MB       (current)
 **********************************************************************************************************************************


1PROGRAM * CCSD (Closed-shell coupled cluster)     Authors: C. Hampel, H.-J. Werner, 1991, M. Deegan, P.J. Knowles, 1992

                                  CCSD-F12 implementation by  H.-J. Werner, 2007

                   Density fitting integral evaluation by F.R. Manby, 2003,2007, G. Knizia, 2010

 Basis set CC-PVTZ/JKFIT generated.      Number of basis functions:   376 
 Basis set AUG-CC-PVTZ/MP2FIT generated. Number of basis functions:   516 

 Convergence thresholds:  THRVAR = 1.00D-08  THRDEN = 1.00D-06

 CCSD(T)     terms to be evaluated (factor= 1.000)


 Number of core orbitals:           4 (   4 )
 Number of closed-shell orbitals:  12 (  12 )
 Number of external orbitals:     214 ( 214 )

 Molecular orbitals read from record     2100.2  Type=RHF/CANONICAL (state 1.1)

 MP2-F12 correlation treatment (H.-J. Werner, 2006)
 --------------------------------------------------

 Using MP2-F12 with ansatz 3C(FIX)

 Using projected zeroth-order Hamiltonian (+Z)

 FOCKRIB=T FOCKRIC=T FOCKRIP=T CABSP=T CABSA=T CABSK=T CABSF=T GBC=F EBC=F DMAT=T NOFIK=T NOPAO=1 SOLVE=-1  USEPAO=0
 EXCH_A= T EXCH_B= F EXCH_C= F EXCH_P= F
 
 Geminal basis:    OPTFULL  GEM_TYPE=SLATER  BETA=1.0  NGEM=6

 Optimizing Gaussian exponents for each gem_beta

 Geminal optimization for beta= 1.0000
 Weight function:   m=0, omega= 1.4646

 Augmented Hessian optimization of geminal fit. Trust ratio= 0.40000
 Convergence reached after   2 iterations. Final gradient= 8.24D-16, Step= 4.32D-06, Delta= 1.28D-09
 
 Alpha:                 0.19532     0.81920     2.85917     9.50073    35.69989   197.79328
 Coeff:                 0.27070     0.30552     0.18297     0.10986     0.06810     0.04224
 

 All pairs explicitly correlated. Number of r12-pairs:           78
 
 AO(A)-basis ORBITAL           loaded. Number of functions:     230
 RI(R)-basis CC-PVTZ/JKFIT     loaded. Number of functions:     376
 DF-basis CC-PVTZ/JKFIT        loaded. Number of functions:     376

 Screening thresholds:   THRAO=  1.00D-10  THRMO=  1.00D-09  THRPROD=  1.00D-09
                         THRSW=  1.00D-05  THROV=  1.00D-12  THRF12=   1.00D-08

 CPU time for Fock operators                      0.91 sec
 
 Construction of ABS:
 Smallest eigenvalue of S          2.58E-04  (threshold= 1.00E-08)
 Ratio eigmin/eigmax               1.84E-06  (threshold= 1.00E-09)
 Smallest eigenvalue of S kept     2.58E-04  (threshold= 2.58E-04, 0 functions deleted, 376 kept)
 
 Construction of CABS:
 Smallest eigenvalue of S          2.30E-08  (threshold= 1.00E-08)
 Ratio eigmin/eigmax               2.30E-08  (threshold= 1.00E-09)
 Smallest eigenvalue of S kept     2.30E-08  (threshold= 2.30E-08, 0 functions deleted, 376 kept)
 
 CPU time for CABS singles                        0.17 sec

 CABS-singles contribution of  -0.01593159 patched into reference energy.
 New reference energy        -263.78503509
 
 AO(A)-basis ORBITAL           loaded. Number of functions:     230
 RI(R)-basis CC-PVTZ/JKFIT     loaded. Number of functions:     376
 DF-basis AUG-CC-PVTZ/MP2FIT   loaded. Number of functions:     516

 Screening thresholds:   THRAO=  1.00D-10  THRMO=  1.00D-09  THRPROD=  1.00D-09
                         THRSW=  1.00D-05  THROV=  1.00D-12  THRF12=   1.00D-08

 CPU time for 3-index integral evaluation         1.80 sec
 CPU time for first  half transformation          0.30 sec ( 7575.4 MFLOP/sec)
 CPU time for second half transformation          0.03 sec ( 3401.9 MFLOP/sec)
 CPU time for sorting                             0.13 sec
 CPU time for fitting                             0.05 sec (27861.0 MFLOP/sec)
 CPU time for tilde quantities                    0.06 sec (30814.7 MFLOP/sec)
 CPU time for assembly                            0.81 sec (29170.2 MFLOP/sec)
 CPU time for tranop_f12                          0.94 sec (32181.7 MFLOP/sec)
 CPU time for f12 integrals (total)               6.25 sec
 F12-matrices built in  3 passes.
 F12-matrices built in  3 passes.
 F12-matrices built in  3 passes.
 F12-matrices built in  3 passes.
 FC-matrix built in  3 passes.
 CPU time for f12 matrices (total)                0.53 sec

 Diagonal F12 approximation with fixed coefficients:  TSING= 0.500,  TTRIP= 0.250 (scaled by -1/beta)

 DF-MP2-F12 energy corrections:
 ------------------------------
 Approx.                                    Singlet             Triplet             Total
 DF-MP2-F12/3*C(DX,FIX)                -0.097442507866     -0.016933371575     -0.114375879441
 DF-MP2-F12/3*C(FIX)                   -0.079852004048     -0.013394597010     -0.093246601058
 DF-MP2-F12/3C(FIX)                    -0.080213403790     -0.013418431688     -0.093631835478

 DF-MP2-F12 correlation energies:
 --------------------------------
 Approx.                                    Singlet             Triplet             Ecorr            Total Energy
 DF-MP2                                -0.537799677993     -0.343141057300     -0.880940735293   -264.665975825586
 DF-MP2-F12/3*C(DX,FIX)                -0.635242185859     -0.360074428875     -0.995316614734   -264.780351705027
 DF-MP2-F12/3*C(FIX)                   -0.617651682041     -0.356535654310     -0.974187336351   -264.759222426645
 DF-MP2-F12/3C(FIX)                    -0.618013081783     -0.356559488988     -0.974572570771   -264.759607661065

 SCS-DF-MP2 energies (F_SING= 1.20000  F_TRIP= 0.62222  F_PARALLEL= 0.33333):
 ----------------------------------------------------------------------------
 SCS-DF-MP2                            -0.858869604800   -264.643904695094
 SCS-DF-MP2-F12/3*C(DX,FIX)            -0.986336934330   -264.771372024624
 SCS-DF-MP2-F12/3*C(FIX)               -0.963026425575   -264.748061515869
 SCS-DF-MP2-F12/3C(FIX)                -0.963474935732   -264.748510026026
 Symmetry transformation completed.

 Number of N-1 electron functions:              12
 Number of N-2 electron functions:              78
 Number of singly external CSFs:              2568
 Number of doubly external CSFs:           3298596
 Total number of CSFs:                     3301165

 Pair and operator lists are different

 Length of J-op  integral file:             474.22 MB
 Length of K-op  integral file:             572.29 MB
 Length of 3-ext integral record:             0.00 MB

 For full I/O caching in triples, increase memory by 50.81 Mwords to 151.09 Mwords.

 Integral transformation finished. Total CPU:  12.42 sec, npass=  1  Memory used:  87.46 MW

 Reference energy:                   -263.78503509

 Adding F12 terms to K(Cij), methodcc=6,  factor=1.0

 ITER.      SQ.NORM     CORR.ENERGY   TOTAL ENERGY   ENERGY CHANGE        DEN1      VAR(S)    VAR(P)  DIIS     TIME
   1      1.20217516    -0.86286900  -264.64790409     0.01808808     0.04675479  0.72D-02  0.56D-02  1  1    28.02
   2      1.21650034    -0.85862913  -264.64366422     0.00423987    -0.02017178  0.86D-04  0.59D-03  2  2    35.43
   3      1.22186436    -0.85872435  -264.64375944    -0.00009522    -0.00236188  0.13D-03  0.32D-04  3  3    42.90
   4      1.22467111    -0.85859572  -264.64363081     0.00012863    -0.00141268  0.76D-05  0.41D-05  4  4    50.40
   5      1.22570448    -0.85855775  -264.64359284     0.00003797    -0.00036742  0.56D-06  0.29D-06  5  5    57.88
   6      1.22586719    -0.85853081  -264.64356590     0.00002694    -0.00000807  0.40D-07  0.24D-07  6  6    65.38
   7      1.22589670    -0.85852836  -264.64356345     0.00000245    -0.00000622  0.27D-08  0.40D-08  6  4    72.86
   8      1.22589706    -0.85852786  -264.64356295     0.00000050     0.00000193  0.40D-09  0.28D-09  6  1    80.49
   9      1.22589765    -0.85852793  -264.64356302    -0.00000007     0.00000058  0.28D-10  0.22D-10  6  2    87.94

 Norm of t1 vector:      0.10606886      S-energy:     0.00000036      T1 diagnostic:  0.01530972
                                                                       D1 diagnostic:  0.04500756

 Adding energy correction from Wij-K(Fij), methodcc=6  factor=1.0
 
  CCSD correlation energy              -0.858527931695
  MP2-F12 correction (uncoupled)       -0.092473247914
  C*T doubles correction               -0.001477541137
  f12b correction                       0.015405061043


 Total CPU time for triples:    224.98 sec


 RESULTS
 =======

  Reference energy                   -263.769103501790
  F12 singles correction               -0.015931588504

 F12 singles corrections added to reference energy

  New reference energy               -263.785035090294

  F12a singlet correction              -0.080414173066
  F12a triplet correction              -0.013536615985
  F12a total correction                -0.093950789051

 F12a corrections for ansatz F12/3C(FIX) added to CCSD energy
 
  CCSD-F12a singlet pair energy        -0.641936497607
  CCSD-F12a triplet pair energy        -0.310542580921
  CCSD-F12a correlation energy         -0.952478720745

  Triples (T) contribution             -0.037660734013
  Total correlation energy             -0.990139454759

  CCSD-F12a total energy             -264.737513811039
  CCSD[T]-F12a energy                -264.777723481747
  CCSD-T-F12a energy                 -264.774235246150
 !CCSD(T)-F12a total energy          -264.775174545052

 F12b corrections for ansatz F12/3C(FIX) added to CCSD(T)-F12a energy

  CCSD-F12b singlet pair energy        -0.627754561535
  CCSD-F12b triplet pair energy        -0.309319455949
  CCSD-F12b correlation energy         -0.937073659703

  Triples (T) contribution             -0.037660734013
  Total correlation energy             -0.974734393716

  CCSD-F12b total energy             -264.722108749996
  CCSD[T]-F12b energy                -264.762318420705
  CCSD-T-F12b energy                 -264.758830185108
 !CCSD(T)-F12b total energy          -264.759769484010

 Timing summary (sec):

 STEP                 CPU(USER)    SYS     CPU(TOT)    WALL
 Transformation         12.53      1.12     13.65     13.67
 CCSD iterations        66.97      2.78     69.75     69.79
 Triples               224.98      2.23    227.21    227.16
 MP2-F12                 8.46      1.24      9.70      9.70
 F12b energy             4.62      0.03      4.65      4.65

 Program statistics:

 Available memory in ccsd:                99998934
 Min. memory needed in ccsd:               8644845
 Max. memory used in ccsd:                11598633
 Max. memory used in cckext:               8768967 (10 integral passes)



 **********************************************************************************************************************************
 DATASETS  * FILE   NREC   LENGTH (MB)   RECORD NAMES
              1      20      527.84       500      610      700      900      950      970     1000      129      960     1100   
                                          VAR    BASINP    GEOM    SYMINP    ZMAT    AOBASIS   BASIS     P2S    ABASIS      S 
                                         1400     1410     1200     1210     1080     1600     1650     1700      960(1)  1380   
                                           T        V       H0       H01     AOSYM     SMH    MOLCAS    OPER    ABASIS    JKOP   

              2       5        2.50       700     1000     2100     7360     7350   
                                         GEOM     BASIS     RHF    F12ABS    EF12   

 PROGRAMS   *        TOTAL   CCSD(T)        HF       INT
 CPU TIMES  *       332.17    317.66      8.26      6.18
 REAL TIME  *       340.95 SEC
 DISK USED  *         2.33 GB      
 SF USED    *         1.91 GB      
 GA USED    *         2.40 MB       (max)       0.00 MB       (current)
 **********************************************************************************************************************************

     CCSD(T)-F12        HF-SCF  
   -264.75976948   -263.76910350
 **********************************************************************************************************************************
 Variable memory released
