
 Primary working directories    : /scratch/kee
 Secondary working directories  : /scratch/kee
 Wavefunction directory         : /home/kee/wfu/
 Main file repository           : /scratch/kee/

 ARCHNAME  : Linux/x86_64
 FC        : /opt/intel/composer_xe_2015.0.090/bin/intel64/ifort
 FCVERSION : 15.0.0
 BLASLIB   : -L/opt/intel/mkl/lib/intel64 -lmkl_intel_ilp64 -lmkl_sequential -lmkl_core
 id        : emory

 Nodes     nprocs
 node17       3
 Number of processes for MPI-2 version of Molpro:   nprocs(total)=    4   nprocs(compute)=    3   nprocs(helper)=    1
 ga_uses_ma=false, calling ma_init with nominal heap.
 GA-space will be limited to   8.0 MW (determined by -G option)

 Using customized tuning parameters: mindgm=7; mindgv=32; mindgc=1; mindgr=1; noblas=0; mincuda=1000; minvec=7
 default implementation of scratch files=sf  

 ***,co2h2o
 memory,100,m
 basis avtz
 geomtype = xyz
 geometry = {
 6
       0.00000777
 O    10.97257393   -1.10347931    0.00000000
 O    11.76744404    1.08065151   -0.00000000
 O     2.29356282    0.00000000    0.00000000
 H     1.54556774    0.58340495    0.10287003
 H     3.04598802    0.58686026    0.10347930
 C    11.34356282    0.00000000    0.00000000
 }
 hf
 ccsd(t)-f12
 ---

 Variables initialized (665), CPU time= 0.01 sec
 Commands  initialized (462), CPU time= 0.00 sec, 486 directives.
 Default parameters read. Elapsed time= 0.03 sec

 Checking input...
 Passed
1


                                         ***  PROGRAM SYSTEM MOLPRO  ***
                         Copyright, University College Cardiff Consultants Limited, 2008

                                    Version 2010.1 linked 9 Dec 2014 15:06:28 


 **********************************************************************************************************************************
 LABEL *   co2h2o                                                                        
 Linux-2.6.32-504.el6.x86_64/node17(x86_64) 64 bit mpp version                           DATE: 18-Jan-17          TIME: 21:26:29  
 **********************************************************************************************************************************

 Patch level:      19
 **********************************************************************************************************************************

 Variable memory set to  100000000 words,  buffer space   230000 words

 SETTING BASIS          =    AVTZ
 SETTING GEOMTYPE       =    XYZ

Geometry recognized as XYZ



 Recomputing integrals since basis changed


 Using spherical harmonics

 Library entry O      S aug-cc-pVTZ          selected for orbital group  1
 Library entry O      P aug-cc-pVTZ          selected for orbital group  1
 Library entry O      D aug-cc-pVTZ          selected for orbital group  1
 Library entry O      F aug-cc-pVTZ          selected for orbital group  1
 Library entry H      S aug-cc-pVTZ          selected for orbital group  2
 Library entry H      P aug-cc-pVTZ          selected for orbital group  2
 Library entry H      D aug-cc-pVTZ          selected for orbital group  2
 Library entry C      S aug-cc-pVTZ          selected for orbital group  3
 Library entry C      P aug-cc-pVTZ          selected for orbital group  3
 Library entry C      D aug-cc-pVTZ          selected for orbital group  3
 Library entry C      F aug-cc-pVTZ          selected for orbital group  3

1PROGRAM * SEWARD (Integral evaluation for generally contracted gaussian basis sets)     Author: Roland Lindh, 1990

 Geometry written to block  1 of record 700


 Point group  C1  



 ATOMIC COORDINATES

 NR  ATOM    CHARGE       X              Y              Z

   1  O       8.00   20.735159684   -2.085273688    0.000000000
   2  O       8.00   22.237246502    2.042135397    0.000000000
   3  O       8.00    4.334205595    0.000000000    0.000000000
   4  H       1.00    2.920699746    1.102475579    0.194396184
   5  H       1.00    5.756083157    1.109005169    0.195547537
   6  C       6.00   21.436227084    0.000000000    0.000000000

 Bond lengths in Bohr (Angstrom)

 1-6  2.199968602  2-6  2.193615529  3-4  1.803119814  3-5  1.813799081
     (1.164173245)     (1.160811343)     (0.954169911)     (0.959821135)

 Bond angles

  1-6-2  177.16520951   4-3-5  103.24222917

 NUCLEAR CHARGE:                   32
 NUMBER OF PRIMITIVE AOS:         322
 NUMBER OF SYMMETRY AOS:          282
 NUMBER OF CONTRACTIONS:          230   ( 230A   )
 NUMBER OF CORE ORBITALS:           4   (   4A   )
 NUMBER OF VALENCE ORBITALS:       18   (  18A   )


 NUCLEAR REPULSION ENERGY   80.26859660


 Eigenvalues of metric

         1 0.350E-03 0.373E-03 0.388E-03 0.422E-03 0.903E-03 0.923E-03 0.163E-02 0.176E-02


 Contracted 2-electron integrals neglected if value below      1.0D-11
 AO integral compression algorithm  1   Integral accuracy      1.0D-11

     415.236 MB (compressed) written to integral file ( 17.8%)

     Node minimum: 126.353 MB, node maximum: 150.995 MB


 NUMBER OF SORTED TWO-ELECTRON INTEGRALS:  117629820.     BUFFER LENGTH:  32768
 NUMBER OF SEGMENTS:   8  SEGMENT LENGTH:   15997437      RECORD LENGTH: 524288

 Memory used in sort:      16.55 MW

 SORT1 READ   291395274. AND WROTE    28293278. INTEGRALS IN     86 RECORDS. CPU TIME:     2.31 SEC, REAL TIME:     2.64 SEC
 SORT2 READ    84674142. AND WROTE   352862895. INTEGRALS IN   1728 RECORDS. CPU TIME:     1.07 SEC, REAL TIME:     1.37 SEC

 Node minimum:   117612110.  Node maximum:   117629820. integrals

 OPERATOR DM      FOR CENTER  0  COORDINATES:    0.000000    0.000000    0.000000


 **********************************************************************************************************************************
 DATASETS  * FILE   NREC   LENGTH (MB)   RECORD NAMES
              1      18        4.62       500      610      700      900      950      970     1000      129      960     1100   
                                          VAR    BASINP    GEOM    SYMINP    ZMAT    AOBASIS   BASIS     P2S    ABASIS      S 
                                         1400     1410     1200     1210     1080     1600     1650     1700   
                                           T        V       H0       H01     AOSYM     SMH    MOLCAS    OPER   

 PROGRAMS   *        TOTAL       INT
 CPU TIMES  *         6.20      6.12
 REAL TIME  *         7.27 SEC
 DISK USED  *         1.41 GB      
 GA USED    *         0.00 MB       (max)       0.00 MB       (current)
 **********************************************************************************************************************************

1PROGRAM * RHF-SCF (CLOSED SHELL)       Authors: W. Meyer, H.-J. Werner


 NUMBER OF ELECTRONS:      16+   16-    SPACE SYMMETRY=1    SPIN SYMMETRY=Singlet 
 CONVERGENCE THRESHOLDS:    1.00E-05 (Density)    1.00E-07 (Energy)
 MAX. NUMBER OF ITERATIONS:       60
 INTERPOLATION TYPE:            DIIS
 INTERPOLATION STEPS:              2 (START)      1 (STEP)
 LEVEL SHIFTS:                  0.00 (CLOSED)  0.00 (OPEN) 



 Orbital guess generated from atomic densities. Full valence occupancy:   22

 Molecular orbital dump at record        2100.2

 ITERATION    DDIFF          GRAD             ENERGY        2-EL.EN.            DIPOLE MOMENTS         DIIS
    1      0.000D+00      0.000D+00      -263.65942693    355.902044   -0.06882    1.17032    0.19888    0
    2      0.000D+00      0.469D-02      -263.72495390    351.392153   -0.01172    0.66988    0.11698    1
    3      0.752D-02      0.319D-02      -263.76854588    353.942323   -0.03323    0.79712    0.13655    2
    4      0.310D-02      0.300D-03      -263.76904263    353.729078   -0.03258    0.79917    0.13742    3
    5      0.356D-03      0.875D-04      -263.76910122    353.732385   -0.03221    0.79529    0.13644    4
    6      0.133D-03      0.354D-04      -263.76910851    353.746716   -0.03238    0.79510    0.13659    5
    7      0.443D-04      0.876D-05      -263.76910925    353.738593   -0.03224    0.79517    0.13652    6
    8      0.145D-04      0.215D-05      -263.76910930    353.739652   -0.03236    0.79484    0.13652    7
    9      0.402D-05      0.135D-05      -263.76910931    353.739698   -0.03226    0.79512    0.13651    0

 Final occupancy:  16

 !RHF STATE 1.1 Energy               -263.769109306498
 Nuclear energy                        80.26859660
 One-electron energy                 -520.90755481
 Two-electron energy                  176.86984891
 Virial quotient                       -1.00179893
 !RHF STATE 1.1 Dipole moment          -0.03226004     0.79511930     0.13651417
 Dipole moment /Debye                  -0.08199148     2.02085930     0.34696169

 Orbital energies:

         1.1          2.1          3.1          4.1          5.1          6.1          7.1          8.1          9.1         10.1
    -20.654432   -20.653217   -20.568082   -11.462684    -1.531349    -1.478035    -1.355048    -0.801675    -0.743762    -0.715875

        11.1         12.1         13.1         14.1         15.1         16.1         17.1         18.1
     -0.715364    -0.715357    -0.587860    -0.545054    -0.545005    -0.511131     0.027424     0.040104


 **********************************************************************************************************************************
 DATASETS  * FILE   NREC   LENGTH (MB)   RECORD NAMES
              1      18        4.62       500      610      700      900      950      970     1000      129      960     1100   
                                          VAR    BASINP    GEOM    SYMINP    ZMAT    AOBASIS   BASIS     P2S    ABASIS      S 
                                         1400     1410     1200     1210     1080     1600     1650     1700   
                                           T        V       H0       H01     AOSYM     SMH    MOLCAS    OPER   

              2       3        1.44       700     1000     2100   
                                         GEOM     BASIS     RHF  

 PROGRAMS   *        TOTAL        HF       INT
 CPU TIMES  *        14.24      8.04      6.12
 REAL TIME  *        15.50 SEC
 DISK USED  *         1.45 GB      
 SF USED    *         0.21 MB      
 GA USED    *         0.00 MB       (max)       0.00 MB       (current)
 **********************************************************************************************************************************


1PROGRAM * CCSD (Closed-shell coupled cluster)     Authors: C. Hampel, H.-J. Werner, 1991, M. Deegan, P.J. Knowles, 1992

                                  CCSD-F12 implementation by  H.-J. Werner, 2007

                   Density fitting integral evaluation by F.R. Manby, 2003,2007, G. Knizia, 2010

 Basis set CC-PVTZ/JKFIT generated.      Number of basis functions:   376 
 Basis set AUG-CC-PVTZ/MP2FIT generated. Number of basis functions:   516 

 Convergence thresholds:  THRVAR = 1.00D-08  THRDEN = 1.00D-06

 CCSD(T)     terms to be evaluated (factor= 1.000)


 Number of core orbitals:           4 (   4 )
 Number of closed-shell orbitals:  12 (  12 )
 Number of external orbitals:     214 ( 214 )

 Molecular orbitals read from record     2100.2  Type=RHF/CANONICAL (state 1.1)

 MP2-F12 correlation treatment (H.-J. Werner, 2006)
 --------------------------------------------------

 Using MP2-F12 with ansatz 3C(FIX)

 Using projected zeroth-order Hamiltonian (+Z)

 FOCKRIB=T FOCKRIC=T FOCKRIP=T CABSP=T CABSA=T CABSK=T CABSF=T GBC=F EBC=F DMAT=T NOFIK=T NOPAO=1 SOLVE=-1  USEPAO=0
 EXCH_A= T EXCH_B= F EXCH_C= F EXCH_P= F
 
 Geminal basis:    OPTFULL  GEM_TYPE=SLATER  BETA=1.0  NGEM=6

 Optimizing Gaussian exponents for each gem_beta

 Geminal optimization for beta= 1.0000
 Weight function:   m=0, omega= 1.4646

 Augmented Hessian optimization of geminal fit. Trust ratio= 0.40000
 Convergence reached after   2 iterations. Final gradient= 8.24D-16, Step= 4.32D-06, Delta= 1.28D-09
 
 Alpha:                 0.19532     0.81920     2.85917     9.50073    35.69989   197.79328
 Coeff:                 0.27070     0.30552     0.18297     0.10986     0.06810     0.04224
 

 All pairs explicitly correlated. Number of r12-pairs:           78
 
 AO(A)-basis ORBITAL           loaded. Number of functions:     230
 RI(R)-basis CC-PVTZ/JKFIT     loaded. Number of functions:     376
 DF-basis CC-PVTZ/JKFIT        loaded. Number of functions:     376

 Screening thresholds:   THRAO=  1.00D-10  THRMO=  1.00D-09  THRPROD=  1.00D-09
                         THRSW=  1.00D-05  THROV=  1.00D-12  THRF12=   1.00D-08

 CPU time for Fock operators                      0.97 sec
 
 Construction of ABS:
 Smallest eigenvalue of S          2.58E-04  (threshold= 1.00E-08)
 Ratio eigmin/eigmax               1.84E-06  (threshold= 1.00E-09)
 Smallest eigenvalue of S kept     2.58E-04  (threshold= 2.58E-04, 0 functions deleted, 376 kept)
 
 Construction of CABS:
 Smallest eigenvalue of S          2.30E-08  (threshold= 1.00E-08)
 Ratio eigmin/eigmax               2.30E-08  (threshold= 1.00E-09)
 Smallest eigenvalue of S kept     2.30E-08  (threshold= 2.30E-08, 0 functions deleted, 376 kept)
 
 CPU time for CABS singles                        0.18 sec

 CABS-singles contribution of  -0.01593151 patched into reference energy.
 New reference energy        -263.78504082
 
 AO(A)-basis ORBITAL           loaded. Number of functions:     230
 RI(R)-basis CC-PVTZ/JKFIT     loaded. Number of functions:     376
 DF-basis AUG-CC-PVTZ/MP2FIT   loaded. Number of functions:     516

 Screening thresholds:   THRAO=  1.00D-10  THRMO=  1.00D-09  THRPROD=  1.00D-09
                         THRSW=  1.00D-05  THROV=  1.00D-12  THRF12=   1.00D-08

 CPU time for 3-index integral evaluation         1.95 sec
 CPU time for first  half transformation          0.20 sec (11804.1 MFLOP/sec)
 CPU time for sorting                             0.13 sec
 CPU time for fitting                             0.07 sec (19900.7 MFLOP/sec)
 CPU time for tilde quantities                    0.08 sec (23111.0 MFLOP/sec)
 CPU time for assembly                            0.81 sec (28597.2 MFLOP/sec)
 CPU time for tranop_f12                          0.92 sec (32661.6 MFLOP/sec)
 CPU time for f12 integrals (total)               6.34 sec
 F12-matrices built in  3 passes.
 F12-matrices built in  3 passes.
 F12-matrices built in  3 passes.
 F12-matrices built in  3 passes.
 FC-matrix built in  3 passes.
 CPU time for f12 matrices (total)                0.57 sec

 Diagonal F12 approximation with fixed coefficients:  TSING= 0.500,  TTRIP= 0.250 (scaled by -1/beta)

 DF-MP2-F12 energy corrections:
 ------------------------------
 Approx.                                    Singlet             Triplet             Total
 DF-MP2-F12/3*C(DX,FIX)                -0.097442791395     -0.016933423394     -0.114376214789
 DF-MP2-F12/3*C(FIX)                   -0.079852248212     -0.013394639271     -0.093246887483
 DF-MP2-F12/3C(FIX)                    -0.080213660613     -0.013418469872     -0.093632130484

 DF-MP2-F12 correlation energies:
 --------------------------------
 Approx.                                    Singlet             Triplet             Ecorr            Total Energy
 DF-MP2                                -0.537798443543     -0.343139842837     -0.880938286380   -264.665979106559
 DF-MP2-F12/3*C(DX,FIX)                -0.635241234938     -0.360073266231     -0.995314501170   -264.780355321349
 DF-MP2-F12/3*C(FIX)                   -0.617650691756     -0.356534482108     -0.974185173864   -264.759225994043
 DF-MP2-F12/3C(FIX)                    -0.618012104156     -0.356558312708     -0.974570416865   -264.759611237044

 SCS-DF-MP2 energies (F_SING= 1.20000  F_TRIP= 0.62222  F_PARALLEL= 0.33333):
 ----------------------------------------------------------------------------
 SCS-DF-MP2                            -0.858867367795   -264.643908187974
 SCS-DF-MP2-F12/3*C(DX,FIX)            -0.986335069803   -264.771375889982
 SCS-DF-MP2-F12/3*C(FIX)               -0.963024507863   -264.748065328042
 SCS-DF-MP2-F12/3C(FIX)                -0.963473030673   -264.748513850852
 Symmetry transformation completed.

 Number of N-1 electron functions:              12
 Number of N-2 electron functions:              78
 Number of singly external CSFs:              2568
 Number of doubly external CSFs:           3298596
 Total number of CSFs:                     3301165

 Pair and operator lists are different

 Length of J-op  integral file:             474.22 MB
 Length of K-op  integral file:             572.29 MB
 Length of 3-ext integral record:             0.00 MB

 For full I/O caching in triples, increase memory by 50.81 Mwords to 151.09 Mwords.

 Integral transformation finished. Total CPU:  13.45 sec, npass=  1  Memory used:  87.46 MW

 Reference energy:                   -263.78504082

 Adding F12 terms to K(Cij), methodcc=6,  factor=1.0

 ITER.      SQ.NORM     CORR.ENERGY   TOTAL ENERGY   ENERGY CHANGE        DEN1      VAR(S)    VAR(P)  DIIS     TIME
   1      1.20217425    -0.86286695  -264.64790777     0.01808769     0.04675402  0.72D-02  0.56D-02  1  1    29.71
   2      1.21649923    -0.85862719  -264.64366801     0.00423976    -0.02017154  0.86D-04  0.59D-03  2  2    37.70
   3      1.22186323    -0.85872242  -264.64376325    -0.00009523    -0.00236190  0.13D-03  0.32D-04  3  3    45.84
   4      1.22466995    -0.85859380  -264.64363462     0.00012863    -0.00141267  0.76D-05  0.41D-05  4  4    53.56
   5      1.22570331    -0.85855583  -264.64359665     0.00003797    -0.00036741  0.56D-06  0.29D-06  5  5    61.65
   6      1.22586601    -0.85852889  -264.64356971     0.00002694    -0.00000807  0.40D-07  0.24D-07  6  6    69.51
   7      1.22589552    -0.85852644  -264.64356726     0.00000244    -0.00000622  0.27D-08  0.40D-08  6  4    77.53
   8      1.22589588    -0.85852594  -264.64356676     0.00000050     0.00000193  0.40D-09  0.28D-09  6  1    85.34
   9      1.22589647    -0.85852601  -264.64356683    -0.00000007     0.00000058  0.28D-10  0.22D-10  6  2    93.35

 Norm of t1 vector:      0.10606845      S-energy:     0.00000034      T1 diagnostic:  0.01530966
                                                                       D1 diagnostic:  0.04500782

 Adding energy correction from Wij-K(Fij), methodcc=6  factor=1.0
 
  CCSD correlation energy              -0.858526010949
  MP2-F12 correction (uncoupled)       -0.092473538533
  C*T doubles correction               -0.001477536211
  f12b correction                       0.015405074464


 Total CPU time for triples:    219.66 sec


 RESULTS
 =======

  Reference energy                   -263.769109306497
  F12 singles correction               -0.015931513682

 F12 singles corrections added to reference energy

  New reference energy               -263.785040820179

  F12a singlet correction              -0.080414417627
  F12a triplet correction              -0.013536657117
  F12a total correction                -0.093951074745

 F12a corrections for ansatz F12/3C(FIX) added to CCSD energy
 
  CCSD-F12a singlet pair energy        -0.641935636762
  CCSD-F12a triplet pair energy        -0.310541789358
  CCSD-F12a correlation energy         -0.952477085693

  Triples (T) contribution             -0.037660385997
  Total correlation energy             -0.990137471690

  CCSD-F12a total energy             -264.737517905873
  CCSD[T]-F12a energy                -264.777727190193
  CCSD-T-F12a energy                 -264.774239008756
 !CCSD(T)-F12a total energy          -264.775178291869

 F12b corrections for ansatz F12/3C(FIX) added to CCSD(T)-F12a energy

  CCSD-F12b singlet pair energy        -0.627753687470
  CCSD-F12b triplet pair energy        -0.309318664186
  CCSD-F12b correlation energy         -0.937072011229

  Triples (T) contribution             -0.037660385997
  Total correlation energy             -0.974732397226

  CCSD-F12b total energy             -264.722112831408
  CCSD[T]-F12b energy                -264.762322115728
  CCSD-T-F12b energy                 -264.758833934291
 !CCSD(T)-F12b total energy          -264.759773217405

 Timing summary (sec):

 STEP                 CPU(USER)    SYS     CPU(TOT)    WALL
 Transformation         13.68      1.14     14.82     14.93
 CCSD iterations        70.94      2.81     73.75     73.78
 Triples               219.66      2.35    222.01    221.91
 MP2-F12                 8.76      1.27     10.03     10.03
 F12b energy             4.59      0.05      4.64      4.65

 Program statistics:

 Available memory in ccsd:                99998934
 Min. memory needed in ccsd:               8644845
 Max. memory used in ccsd:                11598633
 Max. memory used in cckext:               8768967 (10 integral passes)



 **********************************************************************************************************************************
 DATASETS  * FILE   NREC   LENGTH (MB)   RECORD NAMES
              1      20      527.84       500      610      700      900      950      970     1000      129      960     1100   
                                          VAR    BASINP    GEOM    SYMINP    ZMAT    AOBASIS   BASIS     P2S    ABASIS      S 
                                         1400     1410     1200     1210     1080     1600     1650     1700      960(1)  1380   
                                           T        V       H0       H01     AOSYM     SMH    MOLCAS    OPER    ABASIS    JKOP   

              2       5        2.50       700     1000     2100     7360     7350   
                                         GEOM     BASIS     RHF    F12ABS    EF12   

 PROGRAMS   *        TOTAL   CCSD(T)        HF       INT
 CPU TIMES  *       332.11    317.87      8.04      6.12
 REAL TIME  *       341.21 SEC
 DISK USED  *         2.31 GB      
 SF USED    *         1.91 GB      
 GA USED    *         2.40 MB       (max)       0.00 MB       (current)
 **********************************************************************************************************************************

     CCSD(T)-F12        HF-SCF  
   -264.75977322   -263.76910931
 **********************************************************************************************************************************
 Variable memory released
