
 Primary working directories    : /scratch/kee
 Secondary working directories  : /scratch/kee
 Wavefunction directory         : /home/kee/wfu/
 Main file repository           : /scratch/kee/

 ARCHNAME  : Linux/x86_64
 FC        : /opt/intel/composer_xe_2015.0.090/bin/intel64/ifort
 FCVERSION : 15.0.0
 BLASLIB   : -L/opt/intel/mkl/lib/intel64 -lmkl_intel_ilp64 -lmkl_sequential -lmkl_core
 id        : emory

 Nodes     nprocs
 node17       3
 Number of processes for MPI-2 version of Molpro:   nprocs(total)=    4   nprocs(compute)=    3   nprocs(helper)=    1
 ga_uses_ma=false, calling ma_init with nominal heap.
 GA-space will be limited to   8.0 MW (determined by -G option)

 Using customized tuning parameters: mindgm=7; mindgv=32; mindgc=1; mindgr=1; noblas=0; mincuda=1000; minvec=7
 default implementation of scratch files=sf  

 ***,co2h2o
 memory,100,m
 basis avtz
 geomtype = xyz
 geometry = {
 6
       0.00000777
 O    10.97257393   -1.10347931    0.00000000
 O    11.76744404    1.08065151   -0.00000000
 O     2.04356282    0.00000000    0.00000000
 H     1.29556774    0.58340495    0.10287003
 H     2.79598802    0.58686026    0.10347930
 C    11.34356282    0.00000000    0.00000000
 }
 hf
 ccsd(t)-f12
 ---

 Variables initialized (665), CPU time= 0.00 sec
 Commands  initialized (462), CPU time= 0.01 sec, 486 directives.
 Default parameters read. Elapsed time= 0.03 sec

 Checking input...
 Passed
1


                                         ***  PROGRAM SYSTEM MOLPRO  ***
                         Copyright, University College Cardiff Consultants Limited, 2008

                                    Version 2010.1 linked 9 Dec 2014 15:06:28 


 **********************************************************************************************************************************
 LABEL *   co2h2o                                                                        
 Linux-2.6.32-504.el6.x86_64/node17(x86_64) 64 bit mpp version                           DATE: 18-Jan-17          TIME: 21:54:44  
 **********************************************************************************************************************************

 Patch level:      19
 **********************************************************************************************************************************

 Variable memory set to  100000000 words,  buffer space   230000 words

 SETTING BASIS          =    AVTZ
 SETTING GEOMTYPE       =    XYZ

Geometry recognized as XYZ



 Recomputing integrals since basis changed


 Using spherical harmonics

 Library entry O      S aug-cc-pVTZ          selected for orbital group  1
 Library entry O      P aug-cc-pVTZ          selected for orbital group  1
 Library entry O      D aug-cc-pVTZ          selected for orbital group  1
 Library entry O      F aug-cc-pVTZ          selected for orbital group  1
 Library entry H      S aug-cc-pVTZ          selected for orbital group  2
 Library entry H      P aug-cc-pVTZ          selected for orbital group  2
 Library entry H      D aug-cc-pVTZ          selected for orbital group  2
 Library entry C      S aug-cc-pVTZ          selected for orbital group  3
 Library entry C      P aug-cc-pVTZ          selected for orbital group  3
 Library entry C      D aug-cc-pVTZ          selected for orbital group  3
 Library entry C      F aug-cc-pVTZ          selected for orbital group  3

1PROGRAM * SEWARD (Integral evaluation for generally contracted gaussian basis sets)     Author: Roland Lindh, 1990

 Geometry written to block  1 of record 700


 Point group  C1  



 ATOMIC COORDINATES

 NR  ATOM    CHARGE       X              Y              Z

   1  O       8.00   20.735159684   -2.085273688    0.000000000
   2  O       8.00   22.237246502    2.042135397    0.000000000
   3  O       8.00    3.861774062    0.000000000    0.000000000
   4  H       1.00    2.448268213    1.102475579    0.194396184
   5  H       1.00    5.283651625    1.109005169    0.195547537
   6  C       6.00   21.436227084    0.000000000    0.000000000

 Bond lengths in Bohr (Angstrom)

 1-6  2.199968602  2-6  2.193615529  3-4  1.803119814  3-5  1.813799081
     (1.164173245)     (1.160811343)     (0.954169911)     (0.959821135)

 Bond angles

  1-6-2  177.16520951   4-3-5  103.24222917

 NUCLEAR CHARGE:                   32
 NUMBER OF PRIMITIVE AOS:         322
 NUMBER OF SYMMETRY AOS:          282
 NUMBER OF CONTRACTIONS:          230   ( 230A   )
 NUMBER OF CORE ORBITALS:           4   (   4A   )
 NUMBER OF VALENCE ORBITALS:       18   (  18A   )


 NUCLEAR REPULSION ENERGY   79.92741067


 Eigenvalues of metric

         1 0.350E-03 0.375E-03 0.387E-03 0.423E-03 0.903E-03 0.923E-03 0.163E-02 0.176E-02


 Contracted 2-electron integrals neglected if value below      1.0D-11
 AO integral compression algorithm  1   Integral accuracy      1.0D-11

     407.110 MB (compressed) written to integral file ( 17.9%)

     Node minimum: 118.489 MB, node maximum: 150.209 MB


 NUMBER OF SORTED TWO-ELECTRON INTEGRALS:  117629820.     BUFFER LENGTH:  32768
 NUMBER OF SEGMENTS:   8  SEGMENT LENGTH:   15997437      RECORD LENGTH: 524288

 Memory used in sort:      16.55 MW

 SORT1 READ   284341798. AND WROTE    27606203. INTEGRALS IN     82 RECORDS. CPU TIME:     2.46 SEC, REAL TIME:     2.79 SEC
 SORT2 READ    82640800. AND WROTE   352862895. INTEGRALS IN   1356 RECORDS. CPU TIME:     1.03 SEC, REAL TIME:     1.26 SEC

 Node minimum:   117612110.  Node maximum:   117629820. integrals

 OPERATOR DM      FOR CENTER  0  COORDINATES:    0.000000    0.000000    0.000000


 **********************************************************************************************************************************
 DATASETS  * FILE   NREC   LENGTH (MB)   RECORD NAMES
              1      18        4.62       500      610      700      900      950      970     1000      129      960     1100   
                                          VAR    BASINP    GEOM    SYMINP    ZMAT    AOBASIS   BASIS     P2S    ABASIS      S 
                                         1400     1410     1200     1210     1080     1600     1650     1700   
                                           T        V       H0       H01     AOSYM     SMH    MOLCAS    OPER   

 PROGRAMS   *        TOTAL       INT
 CPU TIMES  *         6.39      6.33
 REAL TIME  *         7.17 SEC
 DISK USED  *         1.37 GB      
 GA USED    *         0.00 MB       (max)       0.00 MB       (current)
 **********************************************************************************************************************************

1PROGRAM * RHF-SCF (CLOSED SHELL)       Authors: W. Meyer, H.-J. Werner


 NUMBER OF ELECTRONS:      16+   16-    SPACE SYMMETRY=1    SPIN SYMMETRY=Singlet 
 CONVERGENCE THRESHOLDS:    1.00E-05 (Density)    1.00E-07 (Energy)
 MAX. NUMBER OF ITERATIONS:       60
 INTERPOLATION TYPE:            DIIS
 INTERPOLATION STEPS:              2 (START)      1 (STEP)
 LEVEL SHIFTS:                  0.00 (CLOSED)  0.00 (OPEN) 



 Orbital guess generated from atomic densities. Full valence occupancy:   22

 Molecular orbital dump at record        2100.2

 ITERATION    DDIFF          GRAD             ENERGY        2-EL.EN.            DIPOLE MOMENTS         DIIS
    1      0.000D+00      0.000D+00      -263.65943871    355.221673   -0.06882    1.17032    0.19888    0
    2      0.000D+00      0.469D-02      -263.72496354    350.711109   -0.01159    0.67038    0.11702    1
    3      0.752D-02      0.319D-02      -263.76855092    353.261475   -0.03320    0.79738    0.13658    2
    4      0.310D-02      0.300D-03      -263.76904765    353.048225   -0.03253    0.79949    0.13745    3
    5      0.356D-03      0.875D-04      -263.76910624    353.051521   -0.03217    0.79557    0.13647    4
    6      0.133D-03      0.354D-04      -263.76911353    353.065853   -0.03234    0.79541    0.13662    5
    7      0.443D-04      0.875D-05      -263.76911427    353.057723   -0.03220    0.79547    0.13654    6
    8      0.145D-04      0.214D-05      -263.76911432    353.058793   -0.03232    0.79515    0.13654    7
    9      0.401D-05      0.133D-05      -263.76911433    353.058829   -0.03222    0.79542    0.13654    0

 Final occupancy:  16

 !RHF STATE 1.1 Energy               -263.769114325891
 Nuclear energy                        79.92741067
 One-electron energy                 -520.22593955
 Two-electron energy                  176.52941455
 Virial quotient                       -1.00179900
 !RHF STATE 1.1 Dipole moment          -0.03221931     0.79541674     0.13654143
 Dipole moment /Debye                  -0.08188795     2.02161528     0.34703096

 Orbital energies:

         1.1          2.1          3.1          4.1          5.1          6.1          7.1          8.1          9.1         10.1
    -20.654405   -20.653200   -20.568054   -11.462663    -1.531326    -1.478013    -1.355020    -0.801655    -0.743743    -0.715847

        11.1         12.1         13.1         14.1         15.1         16.1         17.1         18.1
     -0.715341    -0.715334    -0.587834    -0.545033    -0.544984    -0.511104     0.027656     0.040302


 **********************************************************************************************************************************
 DATASETS  * FILE   NREC   LENGTH (MB)   RECORD NAMES
              1      18        4.62       500      610      700      900      950      970     1000      129      960     1100   
                                          VAR    BASINP    GEOM    SYMINP    ZMAT    AOBASIS   BASIS     P2S    ABASIS      S 
                                         1400     1410     1200     1210     1080     1600     1650     1700   
                                           T        V       H0       H01     AOSYM     SMH    MOLCAS    OPER   

              2       3        1.44       700     1000     2100   
                                         GEOM     BASIS     RHF  

 PROGRAMS   *        TOTAL        HF       INT
 CPU TIMES  *        14.24      7.85      6.33
 REAL TIME  *        15.29 SEC
 DISK USED  *         1.41 GB      
 SF USED    *         0.21 MB      
 GA USED    *         0.00 MB       (max)       0.00 MB       (current)
 **********************************************************************************************************************************


1PROGRAM * CCSD (Closed-shell coupled cluster)     Authors: C. Hampel, H.-J. Werner, 1991, M. Deegan, P.J. Knowles, 1992

                                  CCSD-F12 implementation by  H.-J. Werner, 2007

                   Density fitting integral evaluation by F.R. Manby, 2003,2007, G. Knizia, 2010

 Basis set CC-PVTZ/JKFIT generated.      Number of basis functions:   376 
 Basis set AUG-CC-PVTZ/MP2FIT generated. Number of basis functions:   516 

 Convergence thresholds:  THRVAR = 1.00D-08  THRDEN = 1.00D-06

 CCSD(T)     terms to be evaluated (factor= 1.000)


 Number of core orbitals:           4 (   4 )
 Number of closed-shell orbitals:  12 (  12 )
 Number of external orbitals:     214 ( 214 )

 Molecular orbitals read from record     2100.2  Type=RHF/CANONICAL (state 1.1)

 MP2-F12 correlation treatment (H.-J. Werner, 2006)
 --------------------------------------------------

 Using MP2-F12 with ansatz 3C(FIX)

 Using projected zeroth-order Hamiltonian (+Z)

 FOCKRIB=T FOCKRIC=T FOCKRIP=T CABSP=T CABSA=T CABSK=T CABSF=T GBC=F EBC=F DMAT=T NOFIK=T NOPAO=1 SOLVE=-1  USEPAO=0
 EXCH_A= T EXCH_B= F EXCH_C= F EXCH_P= F
 
 Geminal basis:    OPTFULL  GEM_TYPE=SLATER  BETA=1.0  NGEM=6

 Optimizing Gaussian exponents for each gem_beta

 Geminal optimization for beta= 1.0000
 Weight function:   m=0, omega= 1.4646

 Augmented Hessian optimization of geminal fit. Trust ratio= 0.40000
 Convergence reached after   2 iterations. Final gradient= 8.24D-16, Step= 4.32D-06, Delta= 1.28D-09
 
 Alpha:                 0.19532     0.81920     2.85917     9.50073    35.69989   197.79328
 Coeff:                 0.27070     0.30552     0.18297     0.10986     0.06810     0.04224
 

 All pairs explicitly correlated. Number of r12-pairs:           78
 
 AO(A)-basis ORBITAL           loaded. Number of functions:     230
 RI(R)-basis CC-PVTZ/JKFIT     loaded. Number of functions:     376
 DF-basis CC-PVTZ/JKFIT        loaded. Number of functions:     376

 Screening thresholds:   THRAO=  1.00D-10  THRMO=  1.00D-09  THRPROD=  1.00D-09
                         THRSW=  1.00D-05  THROV=  1.00D-12  THRF12=   1.00D-08

 CPU time for Fock operators                      0.96 sec
 
 Construction of ABS:
 Smallest eigenvalue of S          2.58E-04  (threshold= 1.00E-08)
 Ratio eigmin/eigmax               1.84E-06  (threshold= 1.00E-09)
 Smallest eigenvalue of S kept     2.58E-04  (threshold= 2.58E-04, 0 functions deleted, 376 kept)
 
 Construction of CABS:
 Smallest eigenvalue of S          2.30E-08  (threshold= 1.00E-08)
 Ratio eigmin/eigmax               2.30E-08  (threshold= 1.00E-09)
 Smallest eigenvalue of S kept     2.30E-08  (threshold= 2.30E-08, 0 functions deleted, 376 kept)
 
 CPU time for CABS singles                        0.17 sec

 CABS-singles contribution of  -0.01593145 patched into reference energy.
 New reference energy        -263.78504578
 
 AO(A)-basis ORBITAL           loaded. Number of functions:     230
 RI(R)-basis CC-PVTZ/JKFIT     loaded. Number of functions:     376
 DF-basis AUG-CC-PVTZ/MP2FIT   loaded. Number of functions:     516

 Screening thresholds:   THRAO=  1.00D-10  THRMO=  1.00D-09  THRPROD=  1.00D-09
                         THRSW=  1.00D-05  THROV=  1.00D-12  THRF12=   1.00D-08

 CPU time for 3-index integral evaluation         1.76 sec
 CPU time for first  half transformation          0.29 sec ( 7501.2 MFLOP/sec)
 CPU time for second half transformation          0.02 sec ( 4801.8 MFLOP/sec)
 CPU time for sorting                             0.12 sec
 CPU time for fitting                             0.05 sec (27861.0 MFLOP/sec)
 CPU time for tilde quantities                    0.07 sec (26412.6 MFLOP/sec)
 CPU time for assembly                            0.89 sec (27850.9 MFLOP/sec)
 CPU time for tranop_f12                          0.94 sec (32986.8 MFLOP/sec)
 CPU time for f12 integrals (total)               6.33 sec
 F12-matrices built in  3 passes.
 F12-matrices built in  3 passes.
 F12-matrices built in  3 passes.
 F12-matrices built in  3 passes.
 FC-matrix built in  3 passes.
 CPU time for f12 matrices (total)                0.53 sec

 Diagonal F12 approximation with fixed coefficients:  TSING= 0.500,  TTRIP= 0.250 (scaled by -1/beta)

 DF-MP2-F12 energy corrections:
 ------------------------------
 Approx.                                    Singlet             Triplet             Total
 DF-MP2-F12/3*C(DX,FIX)                -0.097443055711     -0.016933474366     -0.114376530077
 DF-MP2-F12/3*C(FIX)                   -0.079852463474     -0.013394678515     -0.093247141989
 DF-MP2-F12/3C(FIX)                    -0.080213890565     -0.013418505195     -0.093632395760

 DF-MP2-F12 correlation energies:
 --------------------------------
 Approx.                                    Singlet             Triplet             Ecorr            Total Energy
 DF-MP2                                -0.537797364845     -0.343138805233     -0.880936170078   -264.665981950801
 DF-MP2-F12/3*C(DX,FIX)                -0.635240420556     -0.360072279599     -0.995312700155   -264.780358480878
 DF-MP2-F12/3*C(FIX)                   -0.617649828319     -0.356533483748     -0.974183312067   -264.759229092790
 DF-MP2-F12/3C(FIX)                    -0.618011255410     -0.356557310428     -0.974568565838   -264.759614346561

 SCS-DF-MP2 energies (F_SING= 1.20000  F_TRIP= 0.62222  F_PARALLEL= 0.33333):
 ----------------------------------------------------------------------------
 SCS-DF-MP2                            -0.858865427737   -264.643911208460
 SCS-DF-MP2-F12/3*C(DX,FIX)            -0.986333478640   -264.771379259363
 SCS-DF-MP2-F12/3*C(FIX)               -0.963022850537   -264.748068631260
 SCS-DF-MP2-F12/3C(FIX)                -0.963471388536   -264.748517169259
 Symmetry transformation completed.

 Number of N-1 electron functions:              12
 Number of N-2 electron functions:              78
 Number of singly external CSFs:              2568
 Number of doubly external CSFs:           3298596
 Total number of CSFs:                     3301165

 Pair and operator lists are different

 Length of J-op  integral file:             474.22 MB
 Length of K-op  integral file:             572.29 MB
 Length of 3-ext integral record:             0.00 MB

 For full I/O caching in triples, increase memory by 50.81 Mwords to 151.09 Mwords.

 Integral transformation finished. Total CPU:  12.37 sec, npass=  1  Memory used:  87.46 MW

 Reference energy:                   -263.78504578

 Adding F12 terms to K(Cij), methodcc=6,  factor=1.0

 ITER.      SQ.NORM     CORR.ENERGY   TOTAL ENERGY   ENERGY CHANGE        DEN1      VAR(S)    VAR(P)  DIIS     TIME
   1      1.20217346    -0.86286518  -264.64791096     0.01808735     0.04675335  0.72D-02  0.56D-02  1  1    27.81
   2      1.21649829    -0.85862552  -264.64367130     0.00423966    -0.02017133  0.86D-04  0.59D-03  2  2    34.82
   3      1.22186226    -0.85872076  -264.64376654    -0.00009524    -0.00236191  0.13D-03  0.32D-04  3  3    42.04
   4      1.22466896    -0.85859213  -264.64363791     0.00012863    -0.00141266  0.76D-05  0.41D-05  4  4    49.29
   5      1.22570230    -0.85855416  -264.64359994     0.00003797    -0.00036741  0.56D-06  0.29D-06  5  5    57.08
   6      1.22586500    -0.85852722  -264.64357301     0.00002694    -0.00000807  0.40D-07  0.24D-07  6  6    64.32
   7      1.22589450    -0.85852478  -264.64357056     0.00000244    -0.00000622  0.27D-08  0.40D-08  6  4    71.67
   8      1.22589486    -0.85852428  -264.64357006     0.00000050     0.00000193  0.40D-09  0.28D-09  6  1    79.46
   9      1.22589545    -0.85852435  -264.64357013    -0.00000007     0.00000058  0.28D-10  0.22D-10  6  2    86.94

 Norm of t1 vector:      0.10606812      S-energy:     0.00000032      T1 diagnostic:  0.01530961
                                                                       D1 diagnostic:  0.04500804

 Adding energy correction from Wij-K(Fij), methodcc=6  factor=1.0
 
  CCSD correlation energy              -0.858524348803
  MP2-F12 correction (uncoupled)       -0.092473797155
  C*T doubles correction               -0.001477534211
  f12b correction                       0.015405086283


 Total CPU time for triples:    215.20 sec


 RESULTS
 =======

  Reference energy                   -263.769114325892
  F12 singles correction               -0.015931454831

 F12 singles corrections added to reference energy

  New reference energy               -263.785045780723

  F12a singlet correction              -0.080414635766
  F12a triplet correction              -0.013536695600
  F12a total correction                -0.093951331365

 F12a corrections for ansatz F12/3C(FIX) added to CCSD energy
 
  CCSD-F12a singlet pair energy        -0.641934884269
  CCSD-F12a triplet pair energy        -0.310541120897
  CCSD-F12a correlation energy         -0.952475680169

  Triples (T) contribution             -0.037660088577
  Total correlation energy             -0.990135768746

  CCSD-F12a total energy             -264.737521460892
  CCSD[T]-F12a energy                -264.777730414887
  CCSD-T-F12a energy                 -264.774242280014
 !CCSD(T)-F12a total energy          -264.775181549469

 F12b corrections for ansatz F12/3C(FIX) added to CCSD(T)-F12a energy

  CCSD-F12b singlet pair energy        -0.627752923219
  CCSD-F12b triplet pair energy        -0.309317995665
  CCSD-F12b correlation energy         -0.937070593886

  Triples (T) contribution             -0.037660088577
  Total correlation energy             -0.974730682463

  CCSD-F12b total energy             -264.722116374609
  CCSD[T]-F12b energy                -264.762325328604
  CCSD-T-F12b energy                 -264.758837193731
 !CCSD(T)-F12b total energy          -264.759776463186

 Timing summary (sec):

 STEP                 CPU(USER)    SYS     CPU(TOT)    WALL
 Transformation         12.48      1.08     13.56     13.77
 CCSD iterations        65.88      2.75     68.63     69.33
 Triples               215.20      2.47    217.67    217.56
 MP2-F12                 8.60      1.15      9.75      9.79
 F12b energy             4.48      0.03      4.51      4.51

 Program statistics:

 Available memory in ccsd:                99998934
 Min. memory needed in ccsd:               8644845
 Max. memory used in ccsd:                11598633
 Max. memory used in cckext:               8768967 (10 integral passes)



 **********************************************************************************************************************************
 DATASETS  * FILE   NREC   LENGTH (MB)   RECORD NAMES
              1      20      527.84       500      610      700      900      950      970     1000      129      960     1100   
                                          VAR    BASINP    GEOM    SYMINP    ZMAT    AOBASIS   BASIS     P2S    ABASIS      S 
                                         1400     1410     1200     1210     1080     1600     1650     1700      960(1)  1380   
                                           T        V       H0       H01     AOSYM     SMH    MOLCAS    OPER    ABASIS    JKOP   

              2       5        2.50       700     1000     2100     7360     7350   
                                         GEOM     BASIS     RHF    F12ABS    EF12   

 PROGRAMS   *        TOTAL   CCSD(T)        HF       INT
 CPU TIMES  *       321.09    306.84      7.85      6.33
 REAL TIME  *       330.64 SEC
 DISK USED  *         2.27 GB      
 SF USED    *         1.91 GB      
 GA USED    *         2.40 MB       (max)       0.00 MB       (current)
 **********************************************************************************************************************************

     CCSD(T)-F12        HF-SCF  
   -264.75977646   -263.76911433
 **********************************************************************************************************************************
 Variable memory released
