
 Primary working directories    : /scratch/kee
 Secondary working directories  : /scratch/kee
 Wavefunction directory         : /home/kee/wfu/
 Main file repository           : /scratch/kee/

 ARCHNAME  : Linux/x86_64
 FC        : /opt/intel/composer_xe_2015.0.090/bin/intel64/ifort
 FCVERSION : 15.0.0
 BLASLIB   : -L/opt/intel/mkl/lib/intel64 -lmkl_intel_ilp64 -lmkl_sequential -lmkl_core
 id        : emory

 Nodes     nprocs
 node25       3
 Number of processes for MPI-2 version of Molpro:   nprocs(total)=    4   nprocs(compute)=    3   nprocs(helper)=    1
 ga_uses_ma=false, calling ma_init with nominal heap.
 GA-space will be limited to   8.0 MW (determined by -G option)

 Using customized tuning parameters: mindgm=7; mindgv=32; mindgc=1; mindgr=1; noblas=0; mincuda=1000; minvec=7
 default implementation of scratch files=sf  

 ***,co2h2o
 memory,100,m
 basis avtz
 geomtype = xyz
 geometry = {
 6
       0.00000000
 O     0.00032100    1.15989800    0.00000000
 O     0.00041400   -1.15989400    0.00000000
 O     2.42369575    1.76662828    0.63368814
 H     3.21525026    2.07558392    0.19133950
 H     2.73768156    1.28800053    1.40181037
 C     0.01953800    0.00000300    0.00000000
 }
 hf
 ccsd(t)-f12
 ---

 Variables initialized (665), CPU time= 0.00 sec
 Commands  initialized (462), CPU time= 0.01 sec, 486 directives.
 Default parameters read. Elapsed time= 0.03 sec

 Checking input...
 Passed
1


                                         ***  PROGRAM SYSTEM MOLPRO  ***
                         Copyright, University College Cardiff Consultants Limited, 2008

                                    Version 2010.1 linked 9 Dec 2014 15:06:28 


 **********************************************************************************************************************************
 LABEL *   co2h2o                                                                        
 Linux-2.6.32-504.el6.x86_64/node25(x86_64) 64 bit mpp version                           DATE: 15-Dec-16          TIME: 01:10:28  
 **********************************************************************************************************************************

 Patch level:      19
 **********************************************************************************************************************************

 Variable memory set to  100000000 words,  buffer space   230000 words

 SETTING BASIS          =    AVTZ
 SETTING GEOMTYPE       =    XYZ

Geometry recognized as XYZ



 Recomputing integrals since basis changed


 Using spherical harmonics

 Library entry O      S aug-cc-pVTZ          selected for orbital group  1
 Library entry O      P aug-cc-pVTZ          selected for orbital group  1
 Library entry O      D aug-cc-pVTZ          selected for orbital group  1
 Library entry O      F aug-cc-pVTZ          selected for orbital group  1
 Library entry H      S aug-cc-pVTZ          selected for orbital group  2
 Library entry H      P aug-cc-pVTZ          selected for orbital group  2
 Library entry H      D aug-cc-pVTZ          selected for orbital group  2
 Library entry C      S aug-cc-pVTZ          selected for orbital group  3
 Library entry C      P aug-cc-pVTZ          selected for orbital group  3
 Library entry C      D aug-cc-pVTZ          selected for orbital group  3
 Library entry C      F aug-cc-pVTZ          selected for orbital group  3

1PROGRAM * SEWARD (Integral evaluation for generally contracted gaussian basis sets)     Author: Roland Lindh, 1990

 Geometry written to block  1 of record 700


 Point group  C1  



 ATOMIC COORDINATES

 NR  ATOM    CHARGE       X              Y              Z

   1  O       8.00    0.000606602    2.191889560    0.000000000
   2  O       8.00    0.000782347   -2.191882001    0.000000000
   3  O       8.00    4.580121193    3.338443625    1.197497037
   4  H       1.00    6.075942435    3.922285172    0.361579253
   5  H       1.00    5.173468383    2.433968259    2.649037687
   6  C       6.00    0.036921469    0.000005669    0.000000000

 Bond lengths in Bohr (Angstrom)

 1-6  2.192184701  2-6  2.192185575  3-4  1.810279172  3-5  1.810278110
     (1.160054182)     (1.160054644)     (0.957958480)     (0.957957918)

 Bond angles

  1-6-2  178.10622893   4-3-5  105.10354942

 NUCLEAR CHARGE:                   32
 NUMBER OF PRIMITIVE AOS:         322
 NUMBER OF SYMMETRY AOS:          282
 NUMBER OF CONTRACTIONS:          230   ( 230A   )
 NUMBER OF CORE ORBITALS:           4   (   4A   )
 NUMBER OF VALENCE ORBITALS:       18   (  18A   )


 NUCLEAR REPULSION ENERGY  104.27128781


 Eigenvalues of metric

         1 0.241E-03 0.319E-03 0.328E-03 0.341E-03 0.765E-03 0.871E-03 0.964E-03 0.151E-02


 Contracted 2-electron integrals neglected if value below      1.0D-11
 AO integral compression algorithm  1   Integral accuracy      1.0D-11

     1303.904 MB (compressed) written to integral file ( 39.7%)

     Node minimum: 407.634 MB, node maximum: 460.849 MB


 NUMBER OF SORTED TWO-ELECTRON INTEGRALS:  117629820.     BUFFER LENGTH:  32768
 NUMBER OF SEGMENTS:   8  SEGMENT LENGTH:   15997437      RECORD LENGTH: 524288

 Memory used in sort:      16.55 MW

 SORT1 READ   410697961. AND WROTE    99137787. INTEGRALS IN    288 RECORDS. CPU TIME:     5.84 SEC, REAL TIME:     6.93 SEC
 SORT2 READ   296540444. AND WROTE   352862895. INTEGRALS IN   4665 RECORDS. CPU TIME:     1.70 SEC, REAL TIME:     2.54 SEC

 Node minimum:   117612110.  Node maximum:   117629820. integrals

 OPERATOR DM      FOR CENTER  0  COORDINATES:    0.000000    0.000000    0.000000


 **********************************************************************************************************************************
 DATASETS  * FILE   NREC   LENGTH (MB)   RECORD NAMES
              1      18        4.62       500      610      700      900      950      970     1000      129      960     1100   
                                          VAR    BASINP    GEOM    SYMINP    ZMAT    AOBASIS   BASIS     P2S    ABASIS      S 
                                         1400     1410     1200     1210     1080     1600     1650     1700   
                                           T        V       H0       H01     AOSYM     SMH    MOLCAS    OPER   

 PROGRAMS   *        TOTAL       INT
 CPU TIMES  *        12.90     12.82
 REAL TIME  *        15.61 SEC
 DISK USED  *         4.81 GB      
 GA USED    *         0.00 MB       (max)       0.00 MB       (current)
 **********************************************************************************************************************************

1PROGRAM * RHF-SCF (CLOSED SHELL)       Authors: W. Meyer, H.-J. Werner


 NUMBER OF ELECTRONS:      16+   16-    SPACE SYMMETRY=1    SPIN SYMMETRY=Singlet 
 CONVERGENCE THRESHOLDS:    1.00E-05 (Density)    1.00E-07 (Energy)
 MAX. NUMBER OF ITERATIONS:       60
 INTERPOLATION TYPE:            DIIS
 INTERPOLATION STEPS:              2 (START)      1 (STEP)
 LEVEL SHIFTS:                  0.00 (CLOSED)  0.00 (OPEN) 



 Orbital guess generated from atomic densities. Full valence occupancy:   22

 Molecular orbital dump at record        2100.2

 ITERATION    DDIFF          GRAD             ENERGY        2-EL.EN.            DIPOLE MOMENTS         DIIS
    1      0.000D+00      0.000D+00      -263.65261230    405.139240    1.13138   -0.15497    0.31589    0
    2      0.000D+00      0.473D-02      -263.71768208    400.012902    0.70490    0.13126    0.18603    1
    3      0.757D-02      0.324D-02      -263.76274778    402.730153    0.81448   -0.00465    0.21665    2
    4      0.314D-02      0.307D-03      -263.76325033    402.523714    0.81464    0.02342    0.21683    3
    5      0.374D-03      0.105D-03      -263.76331885    402.520779    0.81083    0.00569    0.21544    4
    6      0.149D-03      0.464D-04      -263.76333064    402.532318    0.81064    0.01428    0.21530    5
    7      0.527D-04      0.120D-04      -263.76333175    402.528492    0.81056    0.01246    0.21527    6
    8      0.184D-04      0.405D-05      -263.76333186    402.526511    0.81040    0.01300    0.21522    7
    9      0.526D-05      0.113D-05      -263.76333188    402.527417    0.81041    0.01292    0.21523    8
   10      0.208D-05      0.370D-06      -263.76333188    402.527205    0.81039    0.01294    0.21522    0

 Final occupancy:  16

 !RHF STATE 1.1 Energy               -263.763331876794
 Nuclear energy                       104.27128781
 One-electron energy                 -569.29822234
 Two-electron energy                  201.26360266
 Virial quotient                       -1.00151786
 !RHF STATE 1.1 Dipole moment           0.81039350     0.01293811     0.21522419
 Dipole moment /Debye                   2.05967992     0.03288323     0.54700950

 Orbital energies:

         1.1          2.1          3.1          4.1          5.1          6.1          7.1          8.1          9.1         10.1
    -20.635947   -20.630433   -20.568784   -11.441396    -1.513669    -1.460088    -1.357022    -0.783006    -0.725779    -0.723444

        11.1         12.1         13.1         14.1         15.1         16.1         17.1         18.1
     -0.699164    -0.697566    -0.589820    -0.526796    -0.523036    -0.509557     0.025708     0.046165


 **********************************************************************************************************************************
 DATASETS  * FILE   NREC   LENGTH (MB)   RECORD NAMES
              1      18        4.62       500      610      700      900      950      970     1000      129      960     1100   
                                          VAR    BASINP    GEOM    SYMINP    ZMAT    AOBASIS   BASIS     P2S    ABASIS      S 
                                         1400     1410     1200     1210     1080     1600     1650     1700   
                                           T        V       H0       H01     AOSYM     SMH    MOLCAS    OPER   

              2       3        1.44       700     1000     2100   
                                         GEOM     BASIS     RHF  

 PROGRAMS   *        TOTAL        HF       INT
 CPU TIMES  *        26.64     13.74     12.82
 REAL TIME  *        30.11 SEC
 DISK USED  *         4.85 GB      
 SF USED    *         0.21 MB      
 GA USED    *         0.00 MB       (max)       0.00 MB       (current)
 **********************************************************************************************************************************


1PROGRAM * CCSD (Closed-shell coupled cluster)     Authors: C. Hampel, H.-J. Werner, 1991, M. Deegan, P.J. Knowles, 1992

                                  CCSD-F12 implementation by  H.-J. Werner, 2007

                   Density fitting integral evaluation by F.R. Manby, 2003,2007, G. Knizia, 2010

 Basis set CC-PVTZ/JKFIT generated.      Number of basis functions:   376 
 Basis set AUG-CC-PVTZ/MP2FIT generated. Number of basis functions:   516 

 Convergence thresholds:  THRVAR = 1.00D-08  THRDEN = 1.00D-06

 CCSD(T)     terms to be evaluated (factor= 1.000)


 Number of core orbitals:           4 (   4 )
 Number of closed-shell orbitals:  12 (  12 )
 Number of external orbitals:     214 ( 214 )

 Molecular orbitals read from record     2100.2  Type=RHF/CANONICAL (state 1.1)

 MP2-F12 correlation treatment (H.-J. Werner, 2006)
 --------------------------------------------------

 Using MP2-F12 with ansatz 3C(FIX)

 Using projected zeroth-order Hamiltonian (+Z)

 FOCKRIB=T FOCKRIC=T FOCKRIP=T CABSP=T CABSA=T CABSK=T CABSF=T GBC=F EBC=F DMAT=T NOFIK=T NOPAO=1 SOLVE=-1  USEPAO=0
 EXCH_A= T EXCH_B= F EXCH_C= F EXCH_P= F
 
 Geminal basis:    OPTFULL  GEM_TYPE=SLATER  BETA=1.0  NGEM=6

 Optimizing Gaussian exponents for each gem_beta

 Geminal optimization for beta= 1.0000
 Weight function:   m=0, omega= 1.4646

 Augmented Hessian optimization of geminal fit. Trust ratio= 0.40000
 Convergence reached after   2 iterations. Final gradient= 8.24D-16, Step= 4.32D-06, Delta= 1.28D-09
 
 Alpha:                 0.19532     0.81920     2.85917     9.50073    35.69989   197.79328
 Coeff:                 0.27070     0.30552     0.18297     0.10986     0.06810     0.04224
 

 All pairs explicitly correlated. Number of r12-pairs:           78
 
 AO(A)-basis ORBITAL           loaded. Number of functions:     230
 RI(R)-basis CC-PVTZ/JKFIT     loaded. Number of functions:     376
 DF-basis CC-PVTZ/JKFIT        loaded. Number of functions:     376

 Screening thresholds:   THRAO=  1.00D-10  THRMO=  1.00D-09  THRPROD=  1.00D-09
                         THRSW=  1.00D-05  THROV=  1.00D-12  THRF12=   1.00D-08

 CPU time for Fock operators                      1.07 sec
 
 Construction of ABS:
 Smallest eigenvalue of S          2.39E-04  (threshold= 1.00E-08)
 Ratio eigmin/eigmax               1.70E-06  (threshold= 1.00E-09)
 Smallest eigenvalue of S kept     2.39E-04  (threshold= 2.39E-04, 0 functions deleted, 376 kept)
 
 Construction of CABS:
 Smallest eigenvalue of S          2.21E-08  (threshold= 1.00E-08)
 Ratio eigmin/eigmax               2.21E-08  (threshold= 1.00E-09)
 Smallest eigenvalue of S kept     2.21E-08  (threshold= 2.21E-08, 0 functions deleted, 376 kept)
 
 CPU time for CABS singles                        0.17 sec

 CABS-singles contribution of  -0.01591940 patched into reference energy.
 New reference energy        -263.77925127
 
 AO(A)-basis ORBITAL           loaded. Number of functions:     230
 RI(R)-basis CC-PVTZ/JKFIT     loaded. Number of functions:     376
 DF-basis AUG-CC-PVTZ/MP2FIT   loaded. Number of functions:     516

 Screening thresholds:   THRAO=  1.00D-10  THRMO=  1.00D-09  THRPROD=  1.00D-09
                         THRSW=  1.00D-05  THROV=  1.00D-12  THRF12=   1.00D-08

 CPU time for 3-index integral evaluation         3.06 sec
 CPU time for first  half transformation          0.35 sec ( 8789.6 MFLOP/sec)
 CPU time for second half transformation          0.02 sec ( 5820.3 MFLOP/sec)
 CPU time for sorting                             0.19 sec
 CPU time for fitting                             0.06 sec (23217.5 MFLOP/sec)
 CPU time for tilde quantities                    0.10 sec (18488.8 MFLOP/sec)
 CPU time for assembly                            0.85 sec (27675.7 MFLOP/sec)
 CPU time for tranop_f12                          0.91 sec (32211.4 MFLOP/sec)
 CPU time for f12 integrals (total)               7.74 sec
 F12-matrices built in  3 passes.
 F12-matrices built in  3 passes.
 F12-matrices built in  3 passes.
 F12-matrices built in  3 passes.
 FC-matrix built in  3 passes.
 CPU time for f12 matrices (total)                0.53 sec

 Diagonal F12 approximation with fixed coefficients:  TSING= 0.500,  TTRIP= 0.250 (scaled by -1/beta)

 DF-MP2-F12 energy corrections:
 ------------------------------
 Approx.                                    Singlet             Triplet             Total
 DF-MP2-F12/3*C(DX,FIX)                -0.097387158245     -0.017017253591     -0.114404411836
 DF-MP2-F12/3*C(FIX)                   -0.079766359331     -0.013494095382     -0.093260454714
 DF-MP2-F12/3C(FIX)                    -0.080142974057     -0.013535567899     -0.093678541956

 DF-MP2-F12 correlation energies:
 --------------------------------
 Approx.                                    Singlet             Triplet             Ecorr            Total Energy
 DF-MP2                                -0.538610334054     -0.345297468854     -0.883907802907   -264.663159076946
 DF-MP2-F12/3*C(DX,FIX)                -0.635997492299     -0.362314722445     -0.998312214744   -264.777563488783
 DF-MP2-F12/3*C(FIX)                   -0.618376693385     -0.358791564236     -0.977168257621   -264.756419531660
 DF-MP2-F12/3C(FIX)                    -0.618753308110     -0.358833036752     -0.977586344863   -264.756837618902

 SCS-DF-MP2 energies (F_SING= 1.20000  F_TRIP= 0.62222  F_PARALLEL= 0.33333):
 ----------------------------------------------------------------------------
 SCS-DF-MP2                            -0.861184159262   -264.640435433301
 SCS-DF-MP2-F12/3*C(DX,FIX)            -0.988637262502   -264.767888536541
 SCS-DF-MP2-F12/3*C(FIX)               -0.965300116475   -264.744551390515
 SCS-DF-MP2-F12/3C(FIX)                -0.965777859267   -264.745029133307
 Symmetry transformation completed.

 Number of N-1 electron functions:              12
 Number of N-2 electron functions:              78
 Number of singly external CSFs:              2568
 Number of doubly external CSFs:           3298596
 Total number of CSFs:                     3301165

 Pair and operator lists are different

 Length of J-op  integral file:             474.22 MB
 Length of K-op  integral file:             572.29 MB
 Length of 3-ext integral record:             0.00 MB

 For full I/O caching in triples, increase memory by 50.81 Mwords to 151.09 Mwords.

 Integral transformation finished. Total CPU:  18.31 sec, npass=  1  Memory used:  87.46 MW

 Reference energy:                   -263.77925127

 Adding F12 terms to K(Cij), methodcc=6,  factor=1.0

 ITER.      SQ.NORM     CORR.ENERGY   TOTAL ENERGY   ENERGY CHANGE        DEN1      VAR(S)    VAR(P)  DIIS     TIME
   1      1.20249754    -0.86548427  -264.64473554     0.01843527     0.04721038  0.72D-02  0.56D-02  1  1    41.50
   2      1.21693208    -0.86121914  -264.64047042     0.00426512    -0.02033666  0.83D-04  0.60D-03  2  2    53.38
   3      1.22223452    -0.86131809  -264.64056937    -0.00009895    -0.00228461  0.13D-03  0.32D-04  3  3    64.60
   4      1.22504244    -0.86118683  -264.64043810     0.00013126    -0.00141141  0.77D-05  0.41D-05  4  4    75.70
   5      1.22607826    -0.86114948  -264.64040075     0.00003735    -0.00036645  0.58D-06  0.29D-06  5  5    87.03
   6      1.22624167    -0.86112279  -264.64037406     0.00002669    -0.00000743  0.47D-07  0.26D-07  6  6    98.12
   7      1.22627346    -0.86111989  -264.64037117     0.00000289    -0.00000657  0.41D-08  0.46D-08  6  2   109.47
   8      1.22627462    -0.86111959  -264.64037086     0.00000030     0.00000181  0.61D-09  0.42D-09  6  1   120.60
   9      1.22627496    -0.86111969  -264.64037096    -0.00000010     0.00000088  0.90D-10  0.42D-10  6  4   131.87

 Norm of t1 vector:      0.10621182      S-energy:    -0.00000013      T1 diagnostic:  0.01533036
                                                                       D1 diagnostic:  0.04528123

 Adding energy correction from Wij-K(Fij), methodcc=6  factor=1.0
 
  CCSD correlation energy              -0.861119687479
  MP2-F12 correction (uncoupled)       -0.092504829486
  C*T doubles correction               -0.001480085372
  f12b correction                       0.015423025988


 Total CPU time for triples:    269.17 sec


 RESULTS
 =======

  Reference energy                   -263.763331876794
  F12 singles correction               -0.015919397245

 F12 singles corrections added to reference energy

  New reference energy               -263.779251274039

  F12a singlet correction              -0.080341429342
  F12a triplet correction              -0.013643485516
  F12a total correction                -0.093984914857

 F12a corrections for ansatz F12/3C(FIX) added to CCSD energy
 
  CCSD-F12a singlet pair energy        -0.642345724197
  CCSD-F12a triplet pair energy        -0.312758749742
  CCSD-F12a correlation energy         -0.955104602337

  Triples (T) contribution             -0.038083399776
  Total correlation energy             -0.993188002113

  CCSD-F12a total energy             -264.734355876376
  CCSD[T]-F12a energy                -264.775003970745
  CCSD-T-F12a energy                 -264.771497939483
 !CCSD(T)-F12a total energy          -264.772439276152

 F12b corrections for ansatz F12/3C(FIX) added to CCSD(T)-F12a energy

  CCSD-F12b singlet pair energy        -0.628159654724
  CCSD-F12b triplet pair energy        -0.311521793228
  CCSD-F12b correlation energy         -0.939681576349

  Triples (T) contribution             -0.038083399776
  Total correlation energy             -0.977764976125

  CCSD-F12b total energy             -264.718932850388
  CCSD[T]-F12b energy                -264.759580944757
  CCSD-T-F12b energy                 -264.756074913495
 !CCSD(T)-F12b total energy          -264.757016250164

 Timing summary (sec):

 STEP                 CPU(USER)    SYS     CPU(TOT)    WALL
 Transformation         18.43      1.18     19.61     19.61
 CCSD iterations       103.30      3.51    106.81    106.94
 Triples               269.17      2.82    271.99    271.87
 MP2-F12                10.15      1.17     11.32     11.31
 F12b energy             7.79      0.08      7.87      7.86

 Program statistics:

 Available memory in ccsd:                99998934
 Min. memory needed in ccsd:               8644845
 Max. memory used in ccsd:                11598633
 Max. memory used in cckext:               8768967 (10 integral passes)



 **********************************************************************************************************************************
 DATASETS  * FILE   NREC   LENGTH (MB)   RECORD NAMES
              1      20      527.84       500      610      700      900      950      970     1000      129      960     1100   
                                          VAR    BASINP    GEOM    SYMINP    ZMAT    AOBASIS   BASIS     P2S    ABASIS      S 
                                         1400     1410     1200     1210     1080     1600     1650     1700      960(1)  1380   
                                           T        V       H0       H01     AOSYM     SMH    MOLCAS    OPER    ABASIS    JKOP   

              2       5        2.50       700     1000     2100     7360     7350   
                                         GEOM     BASIS     RHF    F12ABS    EF12   

 PROGRAMS   *        TOTAL   CCSD(T)        HF       INT
 CPU TIMES  *       435.61    408.97     13.74     12.82
 REAL TIME  *       448.13 SEC
 DISK USED  *         5.71 GB      
 SF USED    *         1.91 GB      
 GA USED    *         2.40 MB       (max)       0.00 MB       (current)
 **********************************************************************************************************************************

     CCSD(T)-F12        HF-SCF  
   -264.75701625   -263.76333188
 **********************************************************************************************************************************
 Variable memory released
