
 Primary working directories    : /scratch/kee
 Secondary working directories  : /scratch/kee
 Wavefunction directory         : /home/kee/wfu/
 Main file repository           : /scratch/kee/

 ARCHNAME  : Linux/x86_64
 FC        : /opt/intel/composer_xe_2015.0.090/bin/intel64/ifort
 FCVERSION : 15.0.0
 BLASLIB   : -L/opt/intel/mkl/lib/intel64 -lmkl_intel_ilp64 -lmkl_sequential -lmkl_core
 id        : emory

 Nodes     nprocs
 node25       3
 Number of processes for MPI-2 version of Molpro:   nprocs(total)=    4   nprocs(compute)=    3   nprocs(helper)=    1
 ga_uses_ma=false, calling ma_init with nominal heap.
 GA-space will be limited to   8.0 MW (determined by -G option)

 Using customized tuning parameters: mindgm=7; mindgv=32; mindgc=1; mindgr=1; noblas=0; mincuda=1000; minvec=7
 default implementation of scratch files=sf  

 ***,co2h2o
 memory,100,m
 basis avtz
 geomtype = xyz
 geometry = {
 6
       0.00000000
 O     0.00032100    1.15989800    0.00000000
 O     0.00041400   -1.15989400    0.00000000
 O     2.54193301    1.85351149    0.66485313
 H     3.33348753    2.16246713    0.22250449
 H     2.85591882    1.37488374    1.43297536
 C     0.01953800    0.00000300    0.00000000
 }
 hf
 ccsd(t)-f12
 ---

 Variables initialized (665), CPU time= 0.01 sec
 Commands  initialized (462), CPU time= 0.01 sec, 486 directives.
 Default parameters read. Elapsed time= 0.04 sec

 Checking input...
 Passed
1


                                         ***  PROGRAM SYSTEM MOLPRO  ***
                         Copyright, University College Cardiff Consultants Limited, 2008

                                    Version 2010.1 linked 9 Dec 2014 15:06:28 


 **********************************************************************************************************************************
 LABEL *   co2h2o                                                                        
 Linux-2.6.32-504.el6.x86_64/node25(x86_64) 64 bit mpp version                           DATE: 15-Dec-16          TIME: 01:30:37  
 **********************************************************************************************************************************

 Patch level:      19
 **********************************************************************************************************************************

 Variable memory set to  100000000 words,  buffer space   230000 words

 SETTING BASIS          =    AVTZ
 SETTING GEOMTYPE       =    XYZ

Geometry recognized as XYZ



 Recomputing integrals since basis changed


 Using spherical harmonics

 Library entry O      S aug-cc-pVTZ          selected for orbital group  1
 Library entry O      P aug-cc-pVTZ          selected for orbital group  1
 Library entry O      D aug-cc-pVTZ          selected for orbital group  1
 Library entry O      F aug-cc-pVTZ          selected for orbital group  1
 Library entry H      S aug-cc-pVTZ          selected for orbital group  2
 Library entry H      P aug-cc-pVTZ          selected for orbital group  2
 Library entry H      D aug-cc-pVTZ          selected for orbital group  2
 Library entry C      S aug-cc-pVTZ          selected for orbital group  3
 Library entry C      P aug-cc-pVTZ          selected for orbital group  3
 Library entry C      D aug-cc-pVTZ          selected for orbital group  3
 Library entry C      F aug-cc-pVTZ          selected for orbital group  3

1PROGRAM * SEWARD (Integral evaluation for generally contracted gaussian basis sets)     Author: Roland Lindh, 1990

 Geometry written to block  1 of record 700


 Point group  C1  



 ATOMIC COORDINATES

 NR  ATOM    CHARGE       X              Y              Z

   1  O       8.00    0.000606602    2.191889560    0.000000000
   2  O       8.00    0.000782347   -2.191882001    0.000000000
   3  O       8.00    4.803557233    3.502629098    1.256390333
   4  H       1.00    6.299378494    4.086470644    0.420472549
   5  H       1.00    5.396904423    2.598153731    2.707930983
   6  C       6.00    0.036921469    0.000005669    0.000000000

 Bond lengths in Bohr (Angstrom)

 1-6  2.192184701  2-6  2.192185575  3-4  1.810279188  3-5  1.810278110
     (1.160054182)     (1.160054644)     (0.957958488)     (0.957957918)

 Bond angles

  1-6-2  178.10622893   4-3-5  105.10354909

 NUCLEAR CHARGE:                   32
 NUMBER OF PRIMITIVE AOS:         322
 NUMBER OF SYMMETRY AOS:          282
 NUMBER OF CONTRACTIONS:          230   ( 230A   )
 NUMBER OF CORE ORBITALS:           4   (   4A   )
 NUMBER OF VALENCE ORBITALS:       18   (  18A   )


 NUCLEAR REPULSION ENERGY  102.64159833


 Eigenvalues of metric

         1 0.260E-03 0.326E-03 0.335E-03 0.347E-03 0.787E-03 0.874E-03 0.108E-02 0.153E-02


 Contracted 2-electron integrals neglected if value below      1.0D-11
 AO integral compression algorithm  1   Integral accuracy      1.0D-11

     1267.728 MB (compressed) written to integral file ( 38.6%)

     Node minimum: 406.585 MB, node maximum: 439.091 MB


 NUMBER OF SORTED TWO-ELECTRON INTEGRALS:  117629820.     BUFFER LENGTH:  32768
 NUMBER OF SEGMENTS:   8  SEGMENT LENGTH:   15997437      RECORD LENGTH: 524288

 Memory used in sort:      16.55 MW

 SORT1 READ   410697961. AND WROTE    97190950. INTEGRALS IN    283 RECORDS. CPU TIME:     5.87 SEC, REAL TIME:     6.98 SEC
 SORT2 READ   290758313. AND WROTE   352862895. INTEGRALS IN   4830 RECORDS. CPU TIME:     2.50 SEC, REAL TIME:     3.33 SEC

 Node minimum:   117612110.  Node maximum:   117629820. integrals

 OPERATOR DM      FOR CENTER  0  COORDINATES:    0.000000    0.000000    0.000000


 **********************************************************************************************************************************
 DATASETS  * FILE   NREC   LENGTH (MB)   RECORD NAMES
              1      18        4.62       500      610      700      900      950      970     1000      129      960     1100   
                                          VAR    BASINP    GEOM    SYMINP    ZMAT    AOBASIS   BASIS     P2S    ABASIS      S 
                                         1400     1410     1200     1210     1080     1600     1650     1700   
                                           T        V       H0       H01     AOSYM     SMH    MOLCAS    OPER   

 PROGRAMS   *        TOTAL       INT
 CPU TIMES  *        13.83     13.75
 REAL TIME  *        16.11 SEC
 DISK USED  *         4.72 GB      
 GA USED    *         0.00 MB       (max)       0.00 MB       (current)
 **********************************************************************************************************************************

1PROGRAM * RHF-SCF (CLOSED SHELL)       Authors: W. Meyer, H.-J. Werner


 NUMBER OF ELECTRONS:      16+   16-    SPACE SYMMETRY=1    SPIN SYMMETRY=Singlet 
 CONVERGENCE THRESHOLDS:    1.00E-05 (Density)    1.00E-07 (Energy)
 MAX. NUMBER OF ITERATIONS:       60
 INTERPOLATION TYPE:            DIIS
 INTERPOLATION STEPS:              2 (START)      1 (STEP)
 LEVEL SHIFTS:                  0.00 (CLOSED)  0.00 (OPEN) 



 Orbital guess generated from atomic densities. Full valence occupancy:   22

 Molecular orbital dump at record        2100.2

 ITERATION    DDIFF          GRAD             ENERGY        2-EL.EN.            DIPOLE MOMENTS         DIIS
    1      0.000D+00      0.000D+00      -263.65543510    401.759225    1.12930   -0.15795    0.31548    0
    2      0.000D+00      0.472D-02      -263.72064511    396.719308    0.69743    0.10182    0.18643    1
    3      0.756D-02      0.322D-02      -263.76524597    399.408220    0.80865   -0.01677    0.21696    2
    4      0.312D-02      0.304D-03      -263.76574373    399.199712    0.80936    0.00735    0.21732    3
    5      0.369D-03      0.101D-03      -263.76580864    399.198278    0.80542   -0.00801    0.21593    4
    6      0.145D-03      0.444D-04      -263.76581942    399.210122    0.80537   -0.00006    0.21586    5
    7      0.510D-04      0.118D-04      -263.76582048    399.205862    0.80527   -0.00196    0.21582    6
    8      0.180D-04      0.401D-05      -263.76582059    399.204056    0.80511   -0.00137    0.21577    7
    9      0.519D-05      0.114D-05      -263.76582060    399.204947    0.80512   -0.00146    0.21578    8
   10      0.207D-05      0.365D-06      -263.76582061    399.204738    0.80510   -0.00144    0.21577    0

 Final occupancy:  16

 !RHF STATE 1.1 Energy               -263.765820605340
 Nuclear energy                       102.64159833
 One-electron energy                 -566.00978800
 Two-electron energy                  199.60236906
 Virial quotient                       -1.00159818
 !RHF STATE 1.1 Dipole moment           0.80510286    -0.00144075     0.21577345
 Dipole moment /Debye                   2.04623333    -0.00366178     0.54840550

 Orbital energies:

         1.1          2.1          3.1          4.1          5.1          6.1          7.1          8.1          9.1         10.1
    -20.637418   -20.632963   -20.568996   -11.443309    -1.515297    -1.461790    -1.356349    -0.784412    -0.727021    -0.722577

        11.1         12.1         13.1         14.1         15.1         16.1         17.1         18.1
     -0.699966    -0.699291    -0.588408    -0.528121    -0.525527    -0.511080     0.025935     0.046186


 **********************************************************************************************************************************
 DATASETS  * FILE   NREC   LENGTH (MB)   RECORD NAMES
              1      18        4.62       500      610      700      900      950      970     1000      129      960     1100   
                                          VAR    BASINP    GEOM    SYMINP    ZMAT    AOBASIS   BASIS     P2S    ABASIS      S 
                                         1400     1410     1200     1210     1080     1600     1650     1700   
                                           T        V       H0       H01     AOSYM     SMH    MOLCAS    OPER   

              2       3        1.44       700     1000     2100   
                                         GEOM     BASIS     RHF  

 PROGRAMS   *        TOTAL        HF       INT
 CPU TIMES  *        27.27     13.44     13.75
 REAL TIME  *        30.34 SEC
 DISK USED  *         4.75 GB      
 SF USED    *         0.21 MB      
 GA USED    *         0.00 MB       (max)       0.00 MB       (current)
 **********************************************************************************************************************************


1PROGRAM * CCSD (Closed-shell coupled cluster)     Authors: C. Hampel, H.-J. Werner, 1991, M. Deegan, P.J. Knowles, 1992

                                  CCSD-F12 implementation by  H.-J. Werner, 2007

                   Density fitting integral evaluation by F.R. Manby, 2003,2007, G. Knizia, 2010

 Basis set CC-PVTZ/JKFIT generated.      Number of basis functions:   376 
 Basis set AUG-CC-PVTZ/MP2FIT generated. Number of basis functions:   516 

 Convergence thresholds:  THRVAR = 1.00D-08  THRDEN = 1.00D-06

 CCSD(T)     terms to be evaluated (factor= 1.000)


 Number of core orbitals:           4 (   4 )
 Number of closed-shell orbitals:  12 (  12 )
 Number of external orbitals:     214 ( 214 )

 Molecular orbitals read from record     2100.2  Type=RHF/CANONICAL (state 1.1)

 MP2-F12 correlation treatment (H.-J. Werner, 2006)
 --------------------------------------------------

 Using MP2-F12 with ansatz 3C(FIX)

 Using projected zeroth-order Hamiltonian (+Z)

 FOCKRIB=T FOCKRIC=T FOCKRIP=T CABSP=T CABSA=T CABSK=T CABSF=T GBC=F EBC=F DMAT=T NOFIK=T NOPAO=1 SOLVE=-1  USEPAO=0
 EXCH_A= T EXCH_B= F EXCH_C= F EXCH_P= F
 
 Geminal basis:    OPTFULL  GEM_TYPE=SLATER  BETA=1.0  NGEM=6

 Optimizing Gaussian exponents for each gem_beta

 Geminal optimization for beta= 1.0000
 Weight function:   m=0, omega= 1.4646

 Augmented Hessian optimization of geminal fit. Trust ratio= 0.40000
 Convergence reached after   2 iterations. Final gradient= 8.24D-16, Step= 4.32D-06, Delta= 1.28D-09
 
 Alpha:                 0.19532     0.81920     2.85917     9.50073    35.69989   197.79328
 Coeff:                 0.27070     0.30552     0.18297     0.10986     0.06810     0.04224
 

 All pairs explicitly correlated. Number of r12-pairs:           78
 
 AO(A)-basis ORBITAL           loaded. Number of functions:     230
 RI(R)-basis CC-PVTZ/JKFIT     loaded. Number of functions:     376
 DF-basis CC-PVTZ/JKFIT        loaded. Number of functions:     376

 Screening thresholds:   THRAO=  1.00D-10  THRMO=  1.00D-09  THRPROD=  1.00D-09
                         THRSW=  1.00D-05  THROV=  1.00D-12  THRF12=   1.00D-08

 CPU time for Fock operators                      1.05 sec
 
 Construction of ABS:
 Smallest eigenvalue of S          2.42E-04  (threshold= 1.00E-08)
 Ratio eigmin/eigmax               1.72E-06  (threshold= 1.00E-09)
 Smallest eigenvalue of S kept     2.42E-04  (threshold= 2.42E-04, 0 functions deleted, 376 kept)
 
 Construction of CABS:
 Smallest eigenvalue of S          2.22E-08  (threshold= 1.00E-08)
 Ratio eigmin/eigmax               2.22E-08  (threshold= 1.00E-09)
 Smallest eigenvalue of S kept     2.22E-08  (threshold= 2.22E-08, 0 functions deleted, 376 kept)
 
 CPU time for CABS singles                        0.17 sec

 CABS-singles contribution of  -0.01592296 patched into reference energy.
 New reference energy        -263.78174357
 
 AO(A)-basis ORBITAL           loaded. Number of functions:     230
 RI(R)-basis CC-PVTZ/JKFIT     loaded. Number of functions:     376
 DF-basis AUG-CC-PVTZ/MP2FIT   loaded. Number of functions:     516

 Screening thresholds:   THRAO=  1.00D-10  THRMO=  1.00D-09  THRPROD=  1.00D-09
                         THRSW=  1.00D-05  THROV=  1.00D-12  THRF12=   1.00D-08

 CPU time for 3-index integral evaluation         2.96 sec
 CPU time for first  half transformation          0.33 sec ( 9752.9 MFLOP/sec)
 CPU time for second half transformation          0.02 sec ( 5926.3 MFLOP/sec)
 CPU time for sorting                             0.18 sec
 CPU time for fitting                             0.04 sec (29820.7 MFLOP/sec)
 CPU time for tilde quantities                    0.08 sec (23111.0 MFLOP/sec)
 CPU time for assembly                            0.86 sec (26896.4 MFLOP/sec)
 CPU time for tranop_f12                          0.97 sec (31159.2 MFLOP/sec)
 CPU time for f12 integrals (total)               7.62 sec
 F12-matrices built in  3 passes.
 F12-matrices built in  3 passes.
 F12-matrices built in  3 passes.
 F12-matrices built in  3 passes.
 FC-matrix built in  3 passes.
 CPU time for f12 matrices (total)                0.61 sec

 Diagonal F12 approximation with fixed coefficients:  TSING= 0.500,  TTRIP= 0.250 (scaled by -1/beta)

 DF-MP2-F12 energy corrections:
 ------------------------------
 Approx.                                    Singlet             Triplet             Total
 DF-MP2-F12/3*C(DX,FIX)                -0.097389569446     -0.016997747895     -0.114387317341
 DF-MP2-F12/3*C(FIX)                   -0.079775577816     -0.013471311921     -0.093246889736
 DF-MP2-F12/3C(FIX)                    -0.080149539124     -0.013508759387     -0.093658298510

 DF-MP2-F12 correlation energies:
 --------------------------------
 Approx.                                    Singlet             Triplet             Ecorr            Total Energy
 DF-MP2                                -0.538330085517     -0.344709286380     -0.883039371897   -264.664782937722
 DF-MP2-F12/3*C(DX,FIX)                -0.635719654963     -0.361707034275     -0.997426689238   -264.779170255063
 DF-MP2-F12/3*C(FIX)                   -0.618105663333     -0.358180598301     -0.976286261634   -264.758029827458
 DF-MP2-F12/3C(FIX)                    -0.618479624641     -0.358218045767     -0.976697670408   -264.758441236232

 SCS-DF-MP2 energies (F_SING= 1.20000  F_TRIP= 0.62222  F_PARALLEL= 0.33333):
 ----------------------------------------------------------------------------
 SCS-DF-MP2                            -0.860481880813   -264.642225446637
 SCS-DF-MP2-F12/3*C(DX,FIX)            -0.987925740616   -264.769669306441
 SCS-DF-MP2-F12/3*C(FIX)               -0.964594723831   -264.746338289656
 SCS-DF-MP2-F12/3C(FIX)                -0.965066778046   -264.746810343871
 Symmetry transformation completed.

 Number of N-1 electron functions:              12
 Number of N-2 electron functions:              78
 Number of singly external CSFs:              2568
 Number of doubly external CSFs:           3298596
 Total number of CSFs:                     3301165

 Pair and operator lists are different

 Length of J-op  integral file:             474.22 MB
 Length of K-op  integral file:             572.29 MB
 Length of 3-ext integral record:             0.00 MB

 For full I/O caching in triples, increase memory by 50.81 Mwords to 151.09 Mwords.

 Integral transformation finished. Total CPU:  15.43 sec, npass=  1  Memory used:  87.46 MW

 Reference energy:                   -263.78174357

 Adding F12 terms to K(Cij), methodcc=6,  factor=1.0

 ITER.      SQ.NORM     CORR.ENERGY   TOTAL ENERGY   ENERGY CHANGE        DEN1      VAR(S)    VAR(P)  DIIS     TIME
   1      1.20237650    -0.86474904  -264.64649260     0.01830303     0.04700363  0.72D-02  0.56D-02  1  1    35.65
   2      1.21676195    -0.86050500  -264.64224857     0.00424403    -0.02026461  0.84D-04  0.59D-03  2  2    46.39
   3      1.22207252    -0.86060268  -264.64234624    -0.00009767    -0.00230713  0.13D-03  0.32D-04  3  3    57.36
   4      1.22487004    -0.86047290  -264.64221647     0.00012978    -0.00140900  0.76D-05  0.41D-05  4  4    67.70
   5      1.22589913    -0.86043558  -264.64217914     0.00003732    -0.00036497  0.57D-06  0.29D-06  5  5    78.66
   6      1.22606177    -0.86040890  -264.64215246     0.00002668    -0.00000775  0.44D-07  0.25D-07  6  6    90.96
   7      1.22609296    -0.86040607  -264.64214964     0.00000283    -0.00000661  0.34D-08  0.43D-08  6  2   101.83
   8      1.22609115    -0.86040626  -264.64214983    -0.00000019     0.00000365  0.75D-09  0.45D-09  6  3   113.34
   9      1.22609436    -0.86040586  -264.64214942     0.00000040    -0.00000118  0.61D-10  0.34D-10  6  1   124.63

 Norm of t1 vector:      0.10600185      S-energy:    -0.00000006      T1 diagnostic:  0.01530005
                                                                       D1 diagnostic:  0.04509324

 Adding energy correction from Wij-K(Fij), methodcc=6  factor=1.0
 
  CCSD correlation energy              -0.860405858847
  MP2-F12 correction (uncoupled)       -0.092491900868
  C*T doubles correction               -0.001476754487
  f12b correction                       0.015416639876


 Total CPU time for triples:    207.11 sec


 RESULTS
 =======

  Reference energy                   -263.765820605340
  F12 singles correction               -0.015922960485

 F12 singles corrections added to reference energy

  New reference energy               -263.781743565825

  F12a singlet correction              -0.080349160289
  F12a triplet correction              -0.013619495066
  F12a total correction                -0.093968655355

 F12a corrections for ansatz F12/3C(FIX) added to CCSD energy
 
  CCSD-F12a singlet pair energy        -0.642162294205
  CCSD-F12a triplet pair energy        -0.312212162010
  CCSD-F12a correlation energy         -0.954374514202

  Triples (T) contribution             -0.037962210944
  Total correlation energy             -0.992336725147

  CCSD-F12a total energy             -264.736118080027
  CCSD[T]-F12a energy                -264.776634126229
  CCSD-T-F12a energy                 -264.773141135825
 !CCSD(T)-F12a total energy          -264.774080290971

 F12b corrections for ansatz F12/3C(FIX) added to CCSD(T)-F12a energy

  CCSD-F12b singlet pair energy        -0.627979248680
  CCSD-F12b triplet pair energy        -0.310978567659
  CCSD-F12b correlation energy         -0.938957874327

  Triples (T) contribution             -0.037962210944
  Total correlation energy             -0.976920085271

  CCSD-F12b total energy             -264.720701440151
  CCSD[T]-F12b energy                -264.761217486353
  CCSD-T-F12b energy                 -264.757724495949
 !CCSD(T)-F12b total energy          -264.758663651096

 Timing summary (sec):

 STEP                 CPU(USER)    SYS     CPU(TOT)    WALL
 Transformation         15.54      1.19     16.73     16.72
 CCSD iterations        99.04      3.41    102.45    103.01
 Triples               207.11      2.45    209.56    209.47
 MP2-F12                10.08      1.17     11.25     11.77
 F12b energy             7.67      0.11      7.78      7.78

 Program statistics:

 Available memory in ccsd:                99998934
 Min. memory needed in ccsd:               8644845
 Max. memory used in ccsd:                11598633
 Max. memory used in cckext:               8768967 (10 integral passes)



 **********************************************************************************************************************************
 DATASETS  * FILE   NREC   LENGTH (MB)   RECORD NAMES
              1      20      527.84       500      610      700      900      950      970     1000      129      960     1100   
                                          VAR    BASINP    GEOM    SYMINP    ZMAT    AOBASIS   BASIS     P2S    ABASIS      S 
                                         1400     1410     1200     1210     1080     1600     1650     1700      960(1)  1380   
                                           T        V       H0       H01     AOSYM     SMH    MOLCAS    OPER    ABASIS    JKOP   

              2       5        2.50       700     1000     2100     7360     7350   
                                         GEOM     BASIS     RHF    F12ABS    EF12   

 PROGRAMS   *        TOTAL   CCSD(T)        HF       INT
 CPU TIMES  *       366.85    339.57     13.44     13.75
 REAL TIME  *       379.54 SEC
 DISK USED  *         5.62 GB      
 SF USED    *         1.91 GB      
 GA USED    *         2.40 MB       (max)       0.00 MB       (current)
 **********************************************************************************************************************************

     CCSD(T)-F12        HF-SCF  
   -264.75866365   -263.76582061
 **********************************************************************************************************************************
 Variable memory released
