
 Primary working directories    : /scratch/kee
 Secondary working directories  : /scratch/kee
 Wavefunction directory         : /home/kee/wfu/
 Main file repository           : /scratch/kee/

 ARCHNAME  : Linux/x86_64
 FC        : /opt/intel/composer_xe_2015.0.090/bin/intel64/ifort
 FCVERSION : 15.0.0
 BLASLIB   : -L/opt/intel/mkl/lib/intel64 -lmkl_intel_ilp64 -lmkl_sequential -lmkl_core
 id        : emory

 Nodes     nprocs
 node25       3
 Number of processes for MPI-2 version of Molpro:   nprocs(total)=    4   nprocs(compute)=    3   nprocs(helper)=    1
 ga_uses_ma=false, calling ma_init with nominal heap.
 GA-space will be limited to   8.0 MW (determined by -G option)

 Using customized tuning parameters: mindgm=7; mindgv=32; mindgc=1; mindgr=1; noblas=0; mincuda=1000; minvec=7
 default implementation of scratch files=sf  

 ***,co2h2o
 memory,100,m
 basis avtz
 geomtype = xyz
 geometry = {
 6
       0.00000000
 O     0.00032100    1.15989800    0.00000000
 O     0.00041400   -1.15989400    0.00000000
 O     2.30545848    1.67974507    0.60252315
 H     3.09701300    1.98870071    0.16017451
 H     2.61944429    1.20111732    1.37064538
 C     0.01953800    0.00000300    0.00000000
 }
 hf
 ccsd(t)-f12
 ---

 Variables initialized (665), CPU time= 0.01 sec
 Commands  initialized (462), CPU time= 0.00 sec, 486 directives.
 Default parameters read. Elapsed time= 0.03 sec

 Checking input...
 Passed
1


                                         ***  PROGRAM SYSTEM MOLPRO  ***
                         Copyright, University College Cardiff Consultants Limited, 2008

                                    Version 2010.1 linked 9 Dec 2014 15:06:28 


 **********************************************************************************************************************************
 LABEL *   co2h2o                                                                        
 Linux-2.6.32-504.el6.x86_64/node25(x86_64) 64 bit mpp version                           DATE: 15-Dec-16          TIME: 00:49:41  
 **********************************************************************************************************************************

 Patch level:      19
 **********************************************************************************************************************************

 Variable memory set to  100000000 words,  buffer space   230000 words

 SETTING BASIS          =    AVTZ
 SETTING GEOMTYPE       =    XYZ

Geometry recognized as XYZ



 Recomputing integrals since basis changed


 Using spherical harmonics

 Library entry O      S aug-cc-pVTZ          selected for orbital group  1
 Library entry O      P aug-cc-pVTZ          selected for orbital group  1
 Library entry O      D aug-cc-pVTZ          selected for orbital group  1
 Library entry O      F aug-cc-pVTZ          selected for orbital group  1
 Library entry H      S aug-cc-pVTZ          selected for orbital group  2
 Library entry H      P aug-cc-pVTZ          selected for orbital group  2
 Library entry H      D aug-cc-pVTZ          selected for orbital group  2
 Library entry C      S aug-cc-pVTZ          selected for orbital group  3
 Library entry C      P aug-cc-pVTZ          selected for orbital group  3
 Library entry C      D aug-cc-pVTZ          selected for orbital group  3
 Library entry C      F aug-cc-pVTZ          selected for orbital group  3

1PROGRAM * SEWARD (Integral evaluation for generally contracted gaussian basis sets)     Author: Roland Lindh, 1990

 Geometry written to block  1 of record 700


 Point group  C1  



 ATOMIC COORDINATES

 NR  ATOM    CHARGE       X              Y              Z

   1  O       8.00    0.000606602    2.191889560    0.000000000
   2  O       8.00    0.000782347   -2.191882001    0.000000000
   3  O       8.00    4.356685135    3.174258153    1.138603741
   4  H       1.00    5.852506395    3.758099699    0.302685957
   5  H       1.00    4.950032325    2.269782787    2.590144391
   6  C       6.00    0.036921469    0.000005669    0.000000000

 Bond lengths in Bohr (Angstrom)

 1-6  2.192184701  2-6  2.192185575  3-4  1.810279188  3-5  1.810278110
     (1.160054182)     (1.160054644)     (0.957958488)     (0.957957918)

 Bond angles

  1-6-2  178.10622893   4-3-5  105.10354909

 NUCLEAR CHARGE:                   32
 NUMBER OF PRIMITIVE AOS:         322
 NUMBER OF SYMMETRY AOS:          282
 NUMBER OF CONTRACTIONS:          230   ( 230A   )
 NUMBER OF CORE ORBITALS:           4   (   4A   )
 NUMBER OF VALENCE ORBITALS:       18   (  18A   )


 NUCLEAR REPULSION ENERGY  106.05452388


 Eigenvalues of metric

         1 0.220E-03 0.308E-03 0.323E-03 0.334E-03 0.738E-03 0.848E-03 0.868E-03 0.148E-02


 Contracted 2-electron integrals neglected if value below      1.0D-11
 AO integral compression algorithm  1   Integral accuracy      1.0D-11

     1338.245 MB (compressed) written to integral file ( 40.7%)

     Node minimum: 438.567 MB, node maximum: 454.820 MB


 NUMBER OF SORTED TWO-ELECTRON INTEGRALS:  117629820.     BUFFER LENGTH:  32768
 NUMBER OF SEGMENTS:   8  SEGMENT LENGTH:   15997437      RECORD LENGTH: 524288

 Memory used in sort:      16.55 MW

 SORT1 READ   410697961. AND WROTE   100928675. INTEGRALS IN    292 RECORDS. CPU TIME:     6.09 SEC, REAL TIME:     7.21 SEC
 SORT2 READ   301870956. AND WROTE   352862895. INTEGRALS IN   5205 RECORDS. CPU TIME:     2.34 SEC, REAL TIME:     3.21 SEC

 Node minimum:   117612110.  Node maximum:   117629820. integrals

 OPERATOR DM      FOR CENTER  0  COORDINATES:    0.000000    0.000000    0.000000


 **********************************************************************************************************************************
 DATASETS  * FILE   NREC   LENGTH (MB)   RECORD NAMES
              1      18        4.62       500      610      700      900      950      970     1000      129      960     1100   
                                          VAR    BASINP    GEOM    SYMINP    ZMAT    AOBASIS   BASIS     P2S    ABASIS      S 
                                         1400     1410     1200     1210     1080     1600     1650     1700   
                                           T        V       H0       H01     AOSYM     SMH    MOLCAS    OPER   

 PROGRAMS   *        TOTAL       INT
 CPU TIMES  *        13.92     13.85
 REAL TIME  *        16.32 SEC
 DISK USED  *         4.91 GB      
 GA USED    *         0.00 MB       (max)       0.00 MB       (current)
 **********************************************************************************************************************************

1PROGRAM * RHF-SCF (CLOSED SHELL)       Authors: W. Meyer, H.-J. Werner


 NUMBER OF ELECTRONS:      16+   16-    SPACE SYMMETRY=1    SPIN SYMMETRY=Singlet 
 CONVERGENCE THRESHOLDS:    1.00E-05 (Density)    1.00E-07 (Energy)
 MAX. NUMBER OF ITERATIONS:       60
 INTERPOLATION TYPE:            DIIS
 INTERPOLATION STEPS:              2 (START)      1 (STEP)
 LEVEL SHIFTS:                  0.00 (CLOSED)  0.00 (OPEN) 



 Orbital guess generated from atomic densities. Full valence occupancy:   22

 Molecular orbital dump at record        2100.2

 ITERATION    DDIFF          GRAD             ENERGY        2-EL.EN.            DIPOLE MOMENTS         DIIS
    1      0.000D+00      0.000D+00      -263.64811286    408.845742    1.13449   -0.15051    0.31662    0
    2      0.000D+00      0.474D-02      -263.71293131    403.608261    0.71352    0.16634    0.18553    1
    3      0.760D-02      0.326D-02      -263.75862977    406.364087    0.82105    0.00906    0.21626    2
    4      0.316D-02      0.311D-03      -263.75914010    406.160208    0.82052    0.04207    0.21622    3
    5      0.381D-03      0.112D-03      -263.75921425    406.155431    0.81685    0.02154    0.21484    4
    6      0.154D-03      0.484D-04      -263.75922722    406.166579    0.81650    0.03072    0.21462    5
    7      0.546D-04      0.121D-04      -263.75922837    406.163198    0.81646    0.02902    0.21460    6
    8      0.188D-04      0.408D-05      -263.75922848    406.161049    0.81629    0.02949    0.21455    7
    9      0.534D-05      0.112D-05      -263.75922849    406.161972    0.81631    0.02943    0.21456    8
   10      0.211D-05      0.382D-06      -263.75922850    406.161756    0.81629    0.02945    0.21455    0

 Final occupancy:  16

 !RHF STATE 1.1 Energy               -263.759228495481
 Nuclear energy                       106.05452388
 One-electron energy                 -572.89463029
 Two-electron energy                  203.08087791
 Virial quotient                       -1.00139313
 !RHF STATE 1.1 Dipole moment           0.81628811     0.02944681     0.21455434
 Dipole moment /Debye                   2.07466154     0.07484142     0.54530702

 Orbital energies:

         1.1          2.1          3.1          4.1          5.1          6.1          7.1          8.1          9.1         10.1
    -20.634304   -20.627386   -20.568347   -11.439185    -1.511902    -1.458254    -1.357883    -0.781554    -0.725582    -0.723750

        11.1         12.1         13.1         14.1         15.1         16.1         17.1         18.1
     -0.698786    -0.695577    -0.591575    -0.525683    -0.520393    -0.506277     0.025467     0.046127


 **********************************************************************************************************************************
 DATASETS  * FILE   NREC   LENGTH (MB)   RECORD NAMES
              1      18        4.62       500      610      700      900      950      970     1000      129      960     1100   
                                          VAR    BASINP    GEOM    SYMINP    ZMAT    AOBASIS   BASIS     P2S    ABASIS      S 
                                         1400     1410     1200     1210     1080     1600     1650     1700   
                                           T        V       H0       H01     AOSYM     SMH    MOLCAS    OPER   

              2       3        1.44       700     1000     2100   
                                         GEOM     BASIS     RHF  

 PROGRAMS   *        TOTAL        HF       INT
 CPU TIMES  *        27.50     13.58     13.85
 REAL TIME  *        30.65 SEC
 DISK USED  *         4.94 GB      
 SF USED    *         0.21 MB      
 GA USED    *         0.00 MB       (max)       0.00 MB       (current)
 **********************************************************************************************************************************


1PROGRAM * CCSD (Closed-shell coupled cluster)     Authors: C. Hampel, H.-J. Werner, 1991, M. Deegan, P.J. Knowles, 1992

                                  CCSD-F12 implementation by  H.-J. Werner, 2007

                   Density fitting integral evaluation by F.R. Manby, 2003,2007, G. Knizia, 2010

 Basis set CC-PVTZ/JKFIT generated.      Number of basis functions:   376 
 Basis set AUG-CC-PVTZ/MP2FIT generated. Number of basis functions:   516 

 Convergence thresholds:  THRVAR = 1.00D-08  THRDEN = 1.00D-06

 CCSD(T)     terms to be evaluated (factor= 1.000)


 Number of core orbitals:           4 (   4 )
 Number of closed-shell orbitals:  12 (  12 )
 Number of external orbitals:     214 ( 214 )

 Molecular orbitals read from record     2100.2  Type=RHF/CANONICAL (state 1.1)

 MP2-F12 correlation treatment (H.-J. Werner, 2006)
 --------------------------------------------------

 Using MP2-F12 with ansatz 3C(FIX)

 Using projected zeroth-order Hamiltonian (+Z)

 FOCKRIB=T FOCKRIC=T FOCKRIP=T CABSP=T CABSA=T CABSK=T CABSF=T GBC=F EBC=F DMAT=T NOFIK=T NOPAO=1 SOLVE=-1  USEPAO=0
 EXCH_A= T EXCH_B= F EXCH_C= F EXCH_P= F
 
 Geminal basis:    OPTFULL  GEM_TYPE=SLATER  BETA=1.0  NGEM=6

 Optimizing Gaussian exponents for each gem_beta

 Geminal optimization for beta= 1.0000
 Weight function:   m=0, omega= 1.4646

 Augmented Hessian optimization of geminal fit. Trust ratio= 0.40000
 Convergence reached after   2 iterations. Final gradient= 8.24D-16, Step= 4.32D-06, Delta= 1.28D-09
 
 Alpha:                 0.19532     0.81920     2.85917     9.50073    35.69989   197.79328
 Coeff:                 0.27070     0.30552     0.18297     0.10986     0.06810     0.04224
 

 All pairs explicitly correlated. Number of r12-pairs:           78
 
 AO(A)-basis ORBITAL           loaded. Number of functions:     230
 RI(R)-basis CC-PVTZ/JKFIT     loaded. Number of functions:     376
 DF-basis CC-PVTZ/JKFIT        loaded. Number of functions:     376

 Screening thresholds:   THRAO=  1.00D-10  THRMO=  1.00D-09  THRPROD=  1.00D-09
                         THRSW=  1.00D-05  THROV=  1.00D-12  THRF12=   1.00D-08

 CPU time for Fock operators                      0.97 sec
 
 Construction of ABS:
 Smallest eigenvalue of S          2.36E-04  (threshold= 1.00E-08)
 Ratio eigmin/eigmax               1.68E-06  (threshold= 1.00E-09)
 Smallest eigenvalue of S kept     2.36E-04  (threshold= 2.36E-04, 0 functions deleted, 376 kept)
 
 Construction of CABS:
 Smallest eigenvalue of S          2.20E-08  (threshold= 1.00E-08)
 Ratio eigmin/eigmax               2.20E-08  (threshold= 1.00E-09)
 Smallest eigenvalue of S kept     2.20E-08  (threshold= 2.20E-08, 0 functions deleted, 376 kept)
 
 CPU time for CABS singles                        0.16 sec

 CABS-singles contribution of  -0.01591722 patched into reference energy.
 New reference energy        -263.77514572
 
 AO(A)-basis ORBITAL           loaded. Number of functions:     230
 RI(R)-basis CC-PVTZ/JKFIT     loaded. Number of functions:     376
 DF-basis AUG-CC-PVTZ/MP2FIT   loaded. Number of functions:     516

 Screening thresholds:   THRAO=  1.00D-10  THRMO=  1.00D-09  THRPROD=  1.00D-09
                         THRSW=  1.00D-05  THROV=  1.00D-12  THRF12=   1.00D-08

 CPU time for 3-index integral evaluation         3.31 sec
 CPU time for first  half transformation          0.26 sec (11493.1 MFLOP/sec)
 CPU time for second half transformation          0.06 sec ( 2006.3 MFLOP/sec)
 CPU time for sorting                             0.17 sec
 CPU time for fitting                             0.10 sec (13930.5 MFLOP/sec)
 CPU time for tilde quantities                    0.14 sec (13267.2 MFLOP/sec)
 CPU time for assembly                            0.89 sec (28559.1 MFLOP/sec)
 CPU time for tranop_f12                          0.92 sec (33044.8 MFLOP/sec)
 CPU time for f12 integrals (total)               8.14 sec
 F12-matrices built in  3 passes.
 F12-matrices built in  3 passes.
 F12-matrices built in  3 passes.
 F12-matrices built in  3 passes.
 FC-matrix built in  3 passes.
 CPU time for f12 matrices (total)                0.70 sec

 Diagonal F12 approximation with fixed coefficients:  TSING= 0.500,  TTRIP= 0.250 (scaled by -1/beta)

 DF-MP2-F12 energy corrections:
 ------------------------------
 Approx.                                    Singlet             Triplet             Total
 DF-MP2-F12/3*C(DX,FIX)                -0.097397088361     -0.017045219648     -0.114442308010
 DF-MP2-F12/3*C(FIX)                   -0.079759937793     -0.013522620944     -0.093282558737
 DF-MP2-F12/3C(FIX)                    -0.080139517407     -0.013568819383     -0.093708336791

 DF-MP2-F12 correlation energies:
 --------------------------------
 Approx.                                    Singlet             Triplet             Ecorr            Total Energy
 DF-MP2                                -0.538988800961     -0.346088126841     -0.885076927802   -264.660222643454
 DF-MP2-F12/3*C(DX,FIX)                -0.636385889323     -0.363133346489     -0.999519235812   -264.774664951463
 DF-MP2-F12/3*C(FIX)                   -0.618748738755     -0.359610747785     -0.978359486539   -264.753505202191
 DF-MP2-F12/3C(FIX)                    -0.619128318369     -0.359656946224     -0.978785264593   -264.753930980244

 SCS-DF-MP2 energies (F_SING= 1.20000  F_TRIP= 0.62222  F_PARALLEL= 0.33333):
 ----------------------------------------------------------------------------
 SCS-DF-MP2                            -0.862130284521   -264.637276000173
 SCS-DF-MP2-F12/3*C(DX,FIX)            -0.989612705003   -264.764758420655
 SCS-DF-MP2-F12/3*C(FIX)               -0.966256285127   -264.741402000779
 SCS-DF-MP2-F12/3C(FIX)                -0.966740526360   -264.741886242011
 Symmetry transformation completed.

 Number of N-1 electron functions:              12
 Number of N-2 electron functions:              78
 Number of singly external CSFs:              2568
 Number of doubly external CSFs:           3298596
 Total number of CSFs:                     3301165

 Pair and operator lists are different

 Length of J-op  integral file:             474.22 MB
 Length of K-op  integral file:             572.29 MB
 Length of 3-ext integral record:             0.00 MB

 For full I/O caching in triples, increase memory by 50.81 Mwords to 151.09 Mwords.

 Integral transformation finished. Total CPU:  20.13 sec, npass=  1  Memory used:  87.46 MW

 Reference energy:                   -263.77514572

 Adding F12 terms to K(Cij), methodcc=6,  factor=1.0

 ITER.      SQ.NORM     CORR.ENERGY   TOTAL ENERGY   ENERGY CHANGE        DEN1      VAR(S)    VAR(P)  DIIS     TIME
   1      1.20265031    -0.86645896  -264.64160467     0.01862834     0.04750888  0.73D-02  0.56D-02  1  1    43.12
   2      1.21714545    -0.86216343  -264.63730914     0.00429553    -0.02042692  0.83D-04  0.60D-03  2  2    55.87
   3      1.22244444    -0.86226350  -264.63740922    -0.00010007    -0.00226223  0.13D-03  0.33D-04  3  3    68.79
   4      1.22526931    -0.86213015  -264.63727587     0.00013335    -0.00141538  0.79D-05  0.42D-05  4  4    81.48
   5      1.22631556    -0.86209269  -264.63723840     0.00003747    -0.00036902  0.60D-06  0.30D-06  5  5    94.07
   6      1.22648000    -0.86206599  -264.63721170     0.00002670    -0.00000689  0.50D-07  0.28D-07  6  6   106.90
   7      1.22651269    -0.86206299  -264.63720870     0.00000300    -0.00000649  0.53D-08  0.49D-08  6  2   119.62
   8      1.22651444    -0.86206264  -264.63720836     0.00000034     0.00000170  0.77D-09  0.48D-09  6  1   132.32
   9      1.22651474    -0.86206276  -264.63720848    -0.00000012     0.00000098  0.14D-09  0.50D-10  6  4   144.72

 Norm of t1 vector:      0.10652195      S-energy:    -0.00000012      T1 diagnostic:  0.01537512
                                                                       D1 diagnostic:  0.04556331

 Adding energy correction from Wij-K(Fij), methodcc=6  factor=1.0
 
  CCSD correlation energy              -0.862062764606
  MP2-F12 correction (uncoupled)       -0.092527118512
  C*T doubles correction               -0.001484286030
  f12b correction                       0.015431710087


 Total CPU time for triples:    216.01 sec


 RESULTS
 =======

  Reference energy                   -263.759228495481
  F12 singles correction               -0.015917220171

 F12 singles corrections added to reference energy

  New reference energy               -263.775145715652

  F12a singlet correction              -0.080337738280
  F12a triplet correction              -0.013673666263
  F12a total correction                -0.094011404542

 F12a corrections for ansatz F12/3C(FIX) added to CCSD energy
 
  CCSD-F12a singlet pair energy        -0.642597340927
  CCSD-F12a triplet pair energy        -0.313476704764
  CCSD-F12a correlation energy         -0.956074169148

  Triples (T) contribution             -0.038240357292
  Total correlation energy             -0.994314526440

  CCSD-F12a total energy             -264.731219884800
  CCSD[T]-F12a energy                -264.772040012860
  CCSD-T-F12a energy                 -264.768516218629
 !CCSD(T)-F12a total energy          -264.769460242091

 F12b corrections for ansatz F12/3C(FIX) added to CCSD(T)-F12a energy

  CCSD-F12b singlet pair energy        -0.628406938135
  CCSD-F12b triplet pair energy        -0.312235397469
  CCSD-F12b correlation energy         -0.940642459061

  Triples (T) contribution             -0.038240357292
  Total correlation energy             -0.978882816353

  CCSD-F12b total energy             -264.715788174713
  CCSD[T]-F12b energy                -264.756608302773
  CCSD-T-F12b energy                 -264.753084508542
 !CCSD(T)-F12b total energy          -264.754028532004

 Timing summary (sec):

 STEP                 CPU(USER)    SYS     CPU(TOT)    WALL
 Transformation         20.24      1.16     21.40     21.39
 CCSD iterations       113.94      3.62    117.56    118.79
 Triples               216.01      2.40    218.41    218.32
 MP2-F12                10.57      1.24     11.81     11.85
 F12b energy             8.64      0.10      8.74      8.74

 Program statistics:

 Available memory in ccsd:                99998934
 Min. memory needed in ccsd:               8644845
 Max. memory used in ccsd:                11598633
 Max. memory used in cckext:               8768967 (10 integral passes)



 **********************************************************************************************************************************
 DATASETS  * FILE   NREC   LENGTH (MB)   RECORD NAMES
              1      20      527.84       500      610      700      900      950      970     1000      129      960     1100   
                                          VAR    BASINP    GEOM    SYMINP    ZMAT    AOBASIS   BASIS     P2S    ABASIS      S 
                                         1400     1410     1200     1210     1080     1600     1650     1700      960(1)  1380   
                                           T        V       H0       H01     AOSYM     SMH    MOLCAS    OPER    ABASIS    JKOP   

              2       5        2.50       700     1000     2100     7360     7350   
                                         GEOM     BASIS     RHF    F12ABS    EF12   

 PROGRAMS   *        TOTAL   CCSD(T)        HF       INT
 CPU TIMES  *       397.02    369.52     13.58     13.85
 REAL TIME  *       410.19 SEC
 DISK USED  *         5.80 GB      
 SF USED    *         1.91 GB      
 GA USED    *         2.40 MB       (max)       0.00 MB       (current)
 **********************************************************************************************************************************

     CCSD(T)-F12        HF-SCF  
   -264.75402853   -263.75922850
 **********************************************************************************************************************************
 Variable memory released
