
 Primary working directories    : /scratch/kee
 Secondary working directories  : /scratch/kee
 Wavefunction directory         : /home/kee/wfu/
 Main file repository           : /scratch/kee/

 ARCHNAME  : Linux/x86_64
 FC        : /opt/intel/composer_xe_2015.0.090/bin/intel64/ifort
 FCVERSION : 15.0.0
 BLASLIB   : -L/opt/intel/mkl/lib/intel64 -lmkl_intel_ilp64 -lmkl_sequential -lmkl_core
 id        : emory

 Nodes     nprocs
 node25       3
 Number of processes for MPI-2 version of Molpro:   nprocs(total)=    4   nprocs(compute)=    3   nprocs(helper)=    1
 ga_uses_ma=false, calling ma_init with nominal heap.
 GA-space will be limited to   8.0 MW (determined by -G option)

 Using customized tuning parameters: mindgm=7; mindgv=32; mindgc=1; mindgr=1; noblas=0; mincuda=1000; minvec=7
 default implementation of scratch files=sf  

 ***,co2h2o
 memory,100,m
 basis avtz
 geomtype = xyz
 geometry = {
 6
       0.00000000
 O     0.00032100    1.15989800    0.00000000
 O     0.00041400   -1.15989400    0.00000000
 O     2.18722121    1.59286186    0.57135816
 H     2.97877573    1.90181750    0.12900952
 H     2.50120702    1.11423411    1.33948039
 C     0.01953800    0.00000300    0.00000000
 }
 hf
 ccsd(t)-f12
 ---

 Variables initialized (665), CPU time= 0.01 sec
 Commands  initialized (462), CPU time= 0.01 sec, 486 directives.
 Default parameters read. Elapsed time= 0.05 sec

 Checking input...
 Passed
1


                                         ***  PROGRAM SYSTEM MOLPRO  ***
                         Copyright, University College Cardiff Consultants Limited, 2008

                                    Version 2010.1 linked 9 Dec 2014 15:06:28 


 **********************************************************************************************************************************
 LABEL *   co2h2o                                                                        
 Linux-2.6.32-504.el6.x86_64/node25(x86_64) 64 bit mpp version                           DATE: 15-Dec-16          TIME: 00:28:14  
 **********************************************************************************************************************************

 Patch level:      19
 **********************************************************************************************************************************

 Variable memory set to  100000000 words,  buffer space   230000 words

 SETTING BASIS          =    AVTZ
 SETTING GEOMTYPE       =    XYZ

Geometry recognized as XYZ



 Recomputing integrals since basis changed


 Using spherical harmonics

 Library entry O      S aug-cc-pVTZ          selected for orbital group  1
 Library entry O      P aug-cc-pVTZ          selected for orbital group  1
 Library entry O      D aug-cc-pVTZ          selected for orbital group  1
 Library entry O      F aug-cc-pVTZ          selected for orbital group  1
 Library entry H      S aug-cc-pVTZ          selected for orbital group  2
 Library entry H      P aug-cc-pVTZ          selected for orbital group  2
 Library entry H      D aug-cc-pVTZ          selected for orbital group  2
 Library entry C      S aug-cc-pVTZ          selected for orbital group  3
 Library entry C      P aug-cc-pVTZ          selected for orbital group  3
 Library entry C      D aug-cc-pVTZ          selected for orbital group  3
 Library entry C      F aug-cc-pVTZ          selected for orbital group  3

1PROGRAM * SEWARD (Integral evaluation for generally contracted gaussian basis sets)     Author: Roland Lindh, 1990

 Geometry written to block  1 of record 700


 Point group  C1  



 ATOMIC COORDINATES

 NR  ATOM    CHARGE       X              Y              Z

   1  O       8.00    0.000606602    2.191889560    0.000000000
   2  O       8.00    0.000782347   -2.191882001    0.000000000
   3  O       8.00    4.133249076    3.010072681    1.079710445
   4  H       1.00    5.629070337    3.593914227    0.243792661
   5  H       1.00    4.726596266    2.105597314    2.531251096
   6  C       6.00    0.036921469    0.000005669    0.000000000

 Bond lengths in Bohr (Angstrom)

 1-6  2.192184701  2-6  2.192185575  3-4  1.810279188  3-5  1.810278110
     (1.160054182)     (1.160054644)     (0.957958488)     (0.957957918)

 Bond angles

  1-6-2  178.10622893   4-3-5  105.10354909

 NUCLEAR CHARGE:                   32
 NUMBER OF PRIMITIVE AOS:         322
 NUMBER OF SYMMETRY AOS:          282
 NUMBER OF CONTRACTIONS:          230   ( 230A   )
 NUMBER OF CORE ORBITALS:           4   (   4A   )
 NUMBER OF VALENCE ORBITALS:       18   (  18A   )


 NUCLEAR REPULSION ENERGY  108.01272567


 Eigenvalues of metric

         1 0.200E-03 0.296E-03 0.318E-03 0.324E-03 0.678E-03 0.770E-03 0.864E-03 0.145E-02


 Contracted 2-electron integrals neglected if value below      1.0D-11
 AO integral compression algorithm  1   Integral accuracy      1.0D-11

     1372.324 MB (compressed) written to integral file ( 41.8%)

     Node minimum: 416.023 MB, node maximum: 485.491 MB


 NUMBER OF SORTED TWO-ELECTRON INTEGRALS:  117629820.     BUFFER LENGTH:  32768
 NUMBER OF SEGMENTS:   8  SEGMENT LENGTH:   15997437      RECORD LENGTH: 524288

 Memory used in sort:      16.55 MW

 SORT1 READ   410697961. AND WROTE   102496470. INTEGRALS IN    297 RECORDS. CPU TIME:     5.91 SEC, REAL TIME:     7.02 SEC
 SORT2 READ   306560348. AND WROTE   352862895. INTEGRALS IN   5556 RECORDS. CPU TIME:     2.07 SEC, REAL TIME:     3.04 SEC

 Node minimum:   117612110.  Node maximum:   117629820. integrals

 OPERATOR DM      FOR CENTER  0  COORDINATES:    0.000000    0.000000    0.000000


 **********************************************************************************************************************************
 DATASETS  * FILE   NREC   LENGTH (MB)   RECORD NAMES
              1      18        4.62       500      610      700      900      950      970     1000      129      960     1100   
                                          VAR    BASINP    GEOM    SYMINP    ZMAT    AOBASIS   BASIS     P2S    ABASIS      S 
                                         1400     1410     1200     1210     1080     1600     1650     1700   
                                           T        V       H0       H01     AOSYM     SMH    MOLCAS    OPER   

 PROGRAMS   *        TOTAL       INT
 CPU TIMES  *        13.83     13.72
 REAL TIME  *        16.37 SEC
 DISK USED  *         5.02 GB      
 GA USED    *         0.00 MB       (max)       0.00 MB       (current)
 **********************************************************************************************************************************

1PROGRAM * RHF-SCF (CLOSED SHELL)       Authors: W. Meyer, H.-J. Werner


 NUMBER OF ELECTRONS:      16+   16-    SPACE SYMMETRY=1    SPIN SYMMETRY=Singlet 
 CONVERGENCE THRESHOLDS:    1.00E-05 (Density)    1.00E-07 (Energy)
 MAX. NUMBER OF ITERATIONS:       60
 INTERPOLATION TYPE:            DIIS
 INTERPOLATION STEPS:              2 (START)      1 (STEP)
 LEVEL SHIFTS:                  0.00 (CLOSED)  0.00 (OPEN) 



 Orbital guess generated from atomic densities. Full valence occupancy:   22

 Molecular orbital dump at record        2100.2

 ITERATION    DDIFF          GRAD             ENERGY        2-EL.EN.            DIPOLE MOMENTS         DIIS
    1      0.000D+00      0.000D+00      -263.64093589    412.921518    1.13909   -0.14384    0.31789    0
    2      0.000D+00      0.475D-02      -263.70532082    407.542339    0.72352    0.20806    0.18496    1
    3      0.763D-02      0.329D-02      -263.75187551    410.350639    0.82842    0.02449    0.21584    2
    4      0.318D-02      0.317D-03      -263.75239858    410.149600    0.82706    0.06368    0.21555    3
    5      0.392D-03      0.121D-03      -263.75248154    410.142720    0.82354    0.03990    0.21417    4
    6      0.161D-03      0.502D-04      -263.75249575    410.153319    0.82299    0.04953    0.21386    5
    7      0.567D-04      0.123D-04      -263.75249694    410.150390    0.82299    0.04798    0.21385    6
    8      0.193D-04      0.413D-05      -263.75249706    410.148077    0.82283    0.04839    0.21380    7
    9      0.545D-05      0.113D-05      -263.75249707    410.149024    0.82284    0.04834    0.21381    8
   10      0.218D-05      0.410D-06      -263.75249708    410.148799    0.82282    0.04835    0.21381    0

 Final occupancy:  16

 !RHF STATE 1.1 Energy               -263.752497075481
 Nuclear energy                       108.01272567
 One-electron energy                 -576.83962202
 Two-electron energy                  205.07439928
 Virial quotient                       -1.00120097
 !RHF STATE 1.1 Dipole moment           0.82282451     0.04835047     0.21380713
 Dipole moment /Debye                   2.09127433     0.12288659     0.54340793

 Orbital energies:

         1.1          2.1          3.1          4.1          5.1          6.1          7.1          8.1          9.1         10.1
    -20.632479   -20.623712   -20.567614   -11.436635    -1.510057    -1.456393    -1.358989    -0.780148    -0.727485    -0.722914

        11.1         12.1         13.1         14.1         15.1         16.1         17.1         18.1
     -0.699145    -0.693277    -0.593594    -0.525101    -0.517734    -0.500136     0.025212     0.046065


 **********************************************************************************************************************************
 DATASETS  * FILE   NREC   LENGTH (MB)   RECORD NAMES
              1      18        4.62       500      610      700      900      950      970     1000      129      960     1100   
                                          VAR    BASINP    GEOM    SYMINP    ZMAT    AOBASIS   BASIS     P2S    ABASIS      S 
                                         1400     1410     1200     1210     1080     1600     1650     1700   
                                           T        V       H0       H01     AOSYM     SMH    MOLCAS    OPER   

              2       3        1.44       700     1000     2100   
                                         GEOM     BASIS     RHF  

 PROGRAMS   *        TOTAL        HF       INT
 CPU TIMES  *        29.23     15.40     13.72
 REAL TIME  *        32.48 SEC
 DISK USED  *         5.05 GB      
 SF USED    *         0.21 MB      
 GA USED    *         0.00 MB       (max)       0.00 MB       (current)
 **********************************************************************************************************************************


1PROGRAM * CCSD (Closed-shell coupled cluster)     Authors: C. Hampel, H.-J. Werner, 1991, M. Deegan, P.J. Knowles, 1992

                                  CCSD-F12 implementation by  H.-J. Werner, 2007

                   Density fitting integral evaluation by F.R. Manby, 2003,2007, G. Knizia, 2010

 Basis set CC-PVTZ/JKFIT generated.      Number of basis functions:   376 
 Basis set AUG-CC-PVTZ/MP2FIT generated. Number of basis functions:   516 

 Convergence thresholds:  THRVAR = 1.00D-08  THRDEN = 1.00D-06

 CCSD(T)     terms to be evaluated (factor= 1.000)


 Number of core orbitals:           4 (   4 )
 Number of closed-shell orbitals:  12 (  12 )
 Number of external orbitals:     214 ( 214 )

 Molecular orbitals read from record     2100.2  Type=RHF/CANONICAL (state 1.1)

 MP2-F12 correlation treatment (H.-J. Werner, 2006)
 --------------------------------------------------

 Using MP2-F12 with ansatz 3C(FIX)

 Using projected zeroth-order Hamiltonian (+Z)

 FOCKRIB=T FOCKRIC=T FOCKRIP=T CABSP=T CABSA=T CABSK=T CABSF=T GBC=F EBC=F DMAT=T NOFIK=T NOPAO=1 SOLVE=-1  USEPAO=0
 EXCH_A= T EXCH_B= F EXCH_C= F EXCH_P= F
 
 Geminal basis:    OPTFULL  GEM_TYPE=SLATER  BETA=1.0  NGEM=6

 Optimizing Gaussian exponents for each gem_beta

 Geminal optimization for beta= 1.0000
 Weight function:   m=0, omega= 1.4646

 Augmented Hessian optimization of geminal fit. Trust ratio= 0.40000
 Convergence reached after   2 iterations. Final gradient= 8.24D-16, Step= 4.32D-06, Delta= 1.28D-09
 
 Alpha:                 0.19532     0.81920     2.85917     9.50073    35.69989   197.79328
 Coeff:                 0.27070     0.30552     0.18297     0.10986     0.06810     0.04224
 

 All pairs explicitly correlated. Number of r12-pairs:           78
 
 AO(A)-basis ORBITAL           loaded. Number of functions:     230
 RI(R)-basis CC-PVTZ/JKFIT     loaded. Number of functions:     376
 DF-basis CC-PVTZ/JKFIT        loaded. Number of functions:     376

 Screening thresholds:   THRAO=  1.00D-10  THRMO=  1.00D-09  THRPROD=  1.00D-09
                         THRSW=  1.00D-05  THROV=  1.00D-12  THRF12=   1.00D-08

 CPU time for Fock operators                      1.05 sec
 
 Construction of ABS:
 Smallest eigenvalue of S          2.33E-04  (threshold= 1.00E-08)
 Ratio eigmin/eigmax               1.66E-06  (threshold= 1.00E-09)
 Smallest eigenvalue of S kept     2.33E-04  (threshold= 2.33E-04, 0 functions deleted, 376 kept)
 
 Construction of CABS:
 Smallest eigenvalue of S          2.19E-08  (threshold= 1.00E-08)
 Ratio eigmin/eigmax               2.19E-08  (threshold= 1.00E-09)
 Smallest eigenvalue of S kept     2.19E-08  (threshold= 2.19E-08, 0 functions deleted, 376 kept)
 
 CPU time for CABS singles                        0.18 sec

 CABS-singles contribution of  -0.01591508 patched into reference energy.
 New reference energy        -263.76841215
 
 AO(A)-basis ORBITAL           loaded. Number of functions:     230
 RI(R)-basis CC-PVTZ/JKFIT     loaded. Number of functions:     376
 DF-basis AUG-CC-PVTZ/MP2FIT   loaded. Number of functions:     516

 Screening thresholds:   THRAO=  1.00D-10  THRMO=  1.00D-09  THRPROD=  1.00D-09
                         THRSW=  1.00D-05  THROV=  1.00D-12  THRF12=   1.00D-08

 CPU time for 3-index integral evaluation         3.34 sec
 CPU time for first  half transformation          0.36 sec ( 8504.9 MFLOP/sec)
 CPU time for second half transformation          0.01 sec ( 9105.8 MFLOP/sec)
 CPU time for sorting                             0.24 sec
 CPU time for fitting                             0.05 sec (27861.0 MFLOP/sec)
 CPU time for tilde quantities                    0.06 sec (30814.7 MFLOP/sec)
 CPU time for assembly                            0.88 sec (24630.4 MFLOP/sec)
 CPU time for tranop_f12                          1.19 sec (27877.0 MFLOP/sec)
 CPU time for f12 integrals (total)               8.54 sec
 F12-matrices built in  3 passes.
 F12-matrices built in  3 passes.
 F12-matrices built in  3 passes.
 F12-matrices built in  3 passes.
 FC-matrix built in  3 passes.
 CPU time for f12 matrices (total)                0.52 sec

 Diagonal F12 approximation with fixed coefficients:  TSING= 0.500,  TTRIP= 0.250 (scaled by -1/beta)

 DF-MP2-F12 energy corrections:
 ------------------------------
 Approx.                                    Singlet             Triplet             Total
 DF-MP2-F12/3*C(DX,FIX)                -0.097430683224     -0.017087341812     -0.114518025036
 DF-MP2-F12/3*C(FIX)                   -0.079757055139     -0.013559773042     -0.093316828181
 DF-MP2-F12/3C(FIX)                    -0.080139881138     -0.013610728276     -0.093750609413

 DF-MP2-F12 correlation energies:
 --------------------------------
 Approx.                                    Singlet             Triplet             Ecorr            Total Energy
 DF-MP2                                -0.539504302818     -0.347154860591     -0.886659163409   -264.655071315442
 DF-MP2-F12/3*C(DX,FIX)                -0.636934986042     -0.364242202403     -1.001177188445   -264.769589340478
 DF-MP2-F12/3*C(FIX)                   -0.619261357957     -0.360714633633     -0.979975991590   -264.748388143622
 DF-MP2-F12/3C(FIX)                    -0.619644183955     -0.360765588867     -0.980409772822   -264.748821924855

 SCS-DF-MP2 energies (F_SING= 1.20000  F_TRIP= 0.62222  F_PARALLEL= 0.33333):
 ----------------------------------------------------------------------------
 SCS-DF-MP2                            -0.863412632193   -264.631824784226
 SCS-DF-MP2-F12/3*C(DX,FIX)            -0.990961575857   -264.759373727889
 SCS-DF-MP2-F12/3*C(FIX)               -0.967558290475   -264.735970442508
 SCS-DF-MP2-F12/3C(FIX)                -0.968049387152   -264.736461539185
 Symmetry transformation completed.

 Number of N-1 electron functions:              12
 Number of N-2 electron functions:              78
 Number of singly external CSFs:              2568
 Number of doubly external CSFs:           3298596
 Total number of CSFs:                     3301165

 Pair and operator lists are different

 Length of J-op  integral file:             474.22 MB
 Length of K-op  integral file:             572.29 MB
 Length of 3-ext integral record:             0.00 MB

 For full I/O caching in triples, increase memory by 50.81 Mwords to 151.09 Mwords.

 Integral transformation finished. Total CPU:  18.65 sec, npass=  1  Memory used:  87.46 MW

 Reference energy:                   -263.76841215

 Adding F12 terms to K(Cij), methodcc=6,  factor=1.0

 ITER.      SQ.NORM     CORR.ENERGY   TOTAL ENERGY   ENERGY CHANGE        DEN1      VAR(S)    VAR(P)  DIIS     TIME
   1      1.20285025    -0.86775632  -264.63616848     0.01891133     0.04794506  0.74D-02  0.57D-02  1  1    39.28
   2      1.21742493    -0.86341511  -264.63182727     0.00434121    -0.02054602  0.83D-04  0.60D-03  2  2    49.35
   3      1.22273154    -0.86351694  -264.63192909    -0.00010183    -0.00223781  0.13D-03  0.33D-04  3  3    60.93
   4      1.22557428    -0.86338067  -264.63179283     0.00013627    -0.00142020  0.81D-05  0.42D-05  4  4    73.81
   5      1.22663822    -0.86334280  -264.63175495     0.00003787    -0.00037388  0.65D-06  0.31D-06  5  5    85.17
   6      1.22680780    -0.86331573  -264.63172789     0.00002707    -0.00000748  0.57D-07  0.31D-07  6  6    98.26
   7      1.22684255    -0.86331250  -264.63172465     0.00000324    -0.00000681  0.76D-08  0.54D-08  6  2   113.07
   8      1.22684524    -0.86331209  -264.63172424     0.00000041     0.00000154  0.11D-08  0.58D-09  6  1   127.69
   9      1.22684553    -0.86331225  -264.63172440    -0.00000016     0.00000114  0.23D-09  0.65D-10  6  4   145.76

 Norm of t1 vector:      0.10698821      S-energy:    -0.00000011      T1 diagnostic:  0.01544242
                                                                       D1 diagnostic:  0.04599190

 Adding energy correction from Wij-K(Fij), methodcc=6  factor=1.0
 
  CCSD correlation energy              -0.863312247646
  MP2-F12 correction (uncoupled)       -0.092564759465
  C*T doubles correction               -0.001488968420
  f12b correction                       0.015443453709


 Total CPU time for triples:    250.61 sec


 RESULTS
 =======

  Reference energy                   -263.752497075481
  F12 singles correction               -0.015915076553

 F12 singles corrections added to reference energy

  New reference energy               -263.768412152033

  F12a singlet correction              -0.080340624625
  F12a triplet correction              -0.013713103260
  F12a total correction                -0.094053727885

 F12a corrections for ansatz F12/3C(FIX) added to CCSD energy
 
  CCSD-F12a singlet pair energy        -0.642944687364
  CCSD-F12a triplet pair energy        -0.314421177360
  CCSD-F12a correlation energy         -0.957365975531

  Triples (T) contribution             -0.038445173273
  Total correlation energy             -0.995811148804

  CCSD-F12a total energy             -264.725778127564
  CCSD[T]-F12a energy                -264.766824370253
  CCSD-T-F12a energy                 -264.763276007852
 !CCSD(T)-F12a total energy          -264.764223300837

 F12b corrections for ansatz F12/3C(FIX) added to CCSD(T)-F12a energy

  CCSD-F12b singlet pair energy        -0.628748106021
  CCSD-F12b triplet pair energy        -0.313174304994
  CCSD-F12b correlation energy         -0.941922521822

  Triples (T) contribution             -0.038445173273
  Total correlation energy             -0.980367695095

  CCSD-F12b total energy             -264.710334673855
  CCSD[T]-F12b energy                -264.751380916544
  CCSD-T-F12b energy                 -264.747832554143
 !CCSD(T)-F12b total energy          -264.748779847128

 Timing summary (sec):

 STEP                 CPU(USER)    SYS     CPU(TOT)    WALL
 Transformation         18.77      1.44     20.21     20.22
 CCSD iterations       116.14      5.31    121.45    121.47
 Triples               250.61      5.11    255.72    255.62
 MP2-F12                10.88      1.42     12.30     12.90
 F12b energy            12.87      0.22     13.09     13.09

 Program statistics:

 Available memory in ccsd:                99998934
 Min. memory needed in ccsd:               8644845
 Max. memory used in ccsd:                11598633
 Max. memory used in cckext:               8768967 (10 integral passes)



 **********************************************************************************************************************************
 DATASETS  * FILE   NREC   LENGTH (MB)   RECORD NAMES
              1      20      527.84       500      610      700      900      950      970     1000      129      960     1100   
                                          VAR    BASINP    GEOM    SYMINP    ZMAT    AOBASIS   BASIS     P2S    ABASIS      S 
                                         1400     1410     1200     1210     1080     1600     1650     1700      960(1)  1380   
                                           T        V       H0       H01     AOSYM     SMH    MOLCAS    OPER    ABASIS    JKOP   

              2       5        2.50       700     1000     2100     7360     7350   
                                         GEOM     BASIS     RHF    F12ABS    EF12   

 PROGRAMS   *        TOTAL   CCSD(T)        HF       INT
 CPU TIMES  *       438.75    409.51     15.40     13.72
 REAL TIME  *       456.22 SEC
 DISK USED  *         5.92 GB      
 SF USED    *         1.91 GB      
 GA USED    *         2.40 MB       (max)       0.00 MB       (current)
 **********************************************************************************************************************************

     CCSD(T)-F12        HF-SCF  
   -264.74877985   -263.75249708
 **********************************************************************************************************************************
 Variable memory released
