
 Primary working directories    : /scratch/kee
 Secondary working directories  : /scratch/kee
 Wavefunction directory         : /home/kee/wfu/
 Main file repository           : /scratch/kee/

 ARCHNAME  : Linux/x86_64
 FC        : /opt/intel/composer_xe_2015.0.090/bin/intel64/ifort
 FCVERSION : 15.0.0
 BLASLIB   : -L/opt/intel/mkl/lib/intel64 -lmkl_intel_ilp64 -lmkl_sequential -lmkl_core
 id        : emory

 Nodes     nprocs
 node25       3
 Number of processes for MPI-2 version of Molpro:   nprocs(total)=    4   nprocs(compute)=    3   nprocs(helper)=    1
 ga_uses_ma=false, calling ma_init with nominal heap.
 GA-space will be limited to   8.0 MW (determined by -G option)

 Using customized tuning parameters: mindgm=7; mindgv=32; mindgc=1; mindgr=1; noblas=0; mincuda=1000; minvec=7
 default implementation of scratch files=sf  

 ***,co2h2o
 memory,100,m
 basis avtz
 geomtype = xyz
 geometry = {
 6
       0.00000000
 O     0.00032100    1.15989800    0.00000000
 O     0.00041400   -1.15989400    0.00000000
 O     2.22663364    1.62182293    0.58174649
 H     3.01818815    1.93077857    0.13939785
 H     2.54061945    1.14319518    1.34986872
 C     0.01953800    0.00000300    0.00000000
 }
 hf
 ccsd(t)-f12
 ---

 Variables initialized (665), CPU time= 0.00 sec
 Commands  initialized (462), CPU time= 0.01 sec, 486 directives.
 Default parameters read. Elapsed time= 0.04 sec

 Checking input...
 Passed
1


                                         ***  PROGRAM SYSTEM MOLPRO  ***
                         Copyright, University College Cardiff Consultants Limited, 2008

                                    Version 2010.1 linked 9 Dec 2014 15:06:28 


 **********************************************************************************************************************************
 LABEL *   co2h2o                                                                        
 Linux-2.6.32-504.el6.x86_64/node25(x86_64) 64 bit mpp version                           DATE: 15-Dec-16          TIME: 00:35:52  
 **********************************************************************************************************************************

 Patch level:      19
 **********************************************************************************************************************************

 Variable memory set to  100000000 words,  buffer space   230000 words

 SETTING BASIS          =    AVTZ
 SETTING GEOMTYPE       =    XYZ

Geometry recognized as XYZ



 Recomputing integrals since basis changed


 Using spherical harmonics

 Library entry O      S aug-cc-pVTZ          selected for orbital group  1
 Library entry O      P aug-cc-pVTZ          selected for orbital group  1
 Library entry O      D aug-cc-pVTZ          selected for orbital group  1
 Library entry O      F aug-cc-pVTZ          selected for orbital group  1
 Library entry H      S aug-cc-pVTZ          selected for orbital group  2
 Library entry H      P aug-cc-pVTZ          selected for orbital group  2
 Library entry H      D aug-cc-pVTZ          selected for orbital group  2
 Library entry C      S aug-cc-pVTZ          selected for orbital group  3
 Library entry C      P aug-cc-pVTZ          selected for orbital group  3
 Library entry C      D aug-cc-pVTZ          selected for orbital group  3
 Library entry C      F aug-cc-pVTZ          selected for orbital group  3

1PROGRAM * SEWARD (Integral evaluation for generally contracted gaussian basis sets)     Author: Roland Lindh, 1990

 Geometry written to block  1 of record 700


 Point group  C1  



 ATOMIC COORDINATES

 NR  ATOM    CHARGE       X              Y              Z

   1  O       8.00    0.000606602    2.191889560    0.000000000
   2  O       8.00    0.000782347   -2.191882001    0.000000000
   3  O       8.00    4.207727775    3.064801171    1.099341544
   4  H       1.00    5.703549017    3.648642718    0.263423760
   5  H       1.00    4.801074965    2.160325805    2.550882194
   6  C       6.00    0.036921469    0.000005669    0.000000000

 Bond lengths in Bohr (Angstrom)

 1-6  2.192184701  2-6  2.192185575  3-4  1.810279172  3-5  1.810278110
     (1.160054182)     (1.160054644)     (0.957958480)     (0.957957918)

 Bond angles

  1-6-2  178.10622893   4-3-5  105.10354942

 NUCLEAR CHARGE:                   32
 NUMBER OF PRIMITIVE AOS:         322
 NUMBER OF SYMMETRY AOS:          282
 NUMBER OF CONTRACTIONS:          230   ( 230A   )
 NUMBER OF CORE ORBITALS:           4   (   4A   )
 NUMBER OF VALENCE ORBITALS:       18   (  18A   )


 NUCLEAR REPULSION ENERGY  107.33908262


 Eigenvalues of metric

         1 0.207E-03 0.300E-03 0.319E-03 0.328E-03 0.704E-03 0.789E-03 0.865E-03 0.146E-02


 Contracted 2-electron integrals neglected if value below      1.0D-11
 AO integral compression algorithm  1   Integral accuracy      1.0D-11

     1360.790 MB (compressed) written to integral file ( 41.4%)

     Node minimum: 419.430 MB, node maximum: 489.423 MB


 NUMBER OF SORTED TWO-ELECTRON INTEGRALS:  117629820.     BUFFER LENGTH:  32768
 NUMBER OF SEGMENTS:   8  SEGMENT LENGTH:   15997437      RECORD LENGTH: 524288

 Memory used in sort:      16.55 MW

 SORT1 READ   410697961. AND WROTE   101991292. INTEGRALS IN    297 RECORDS. CPU TIME:     6.05 SEC, REAL TIME:     7.12 SEC
 SORT2 READ   305042629. AND WROTE   352862895. INTEGRALS IN   5601 RECORDS. CPU TIME:     1.76 SEC, REAL TIME:     2.64 SEC

 Node minimum:   117612110.  Node maximum:   117629820. integrals

 OPERATOR DM      FOR CENTER  0  COORDINATES:    0.000000    0.000000    0.000000


 **********************************************************************************************************************************
 DATASETS  * FILE   NREC   LENGTH (MB)   RECORD NAMES
              1      18        4.62       500      610      700      900      950      970     1000      129      960     1100   
                                          VAR    BASINP    GEOM    SYMINP    ZMAT    AOBASIS   BASIS     P2S    ABASIS      S 
                                         1400     1410     1200     1210     1080     1600     1650     1700   
                                           T        V       H0       H01     AOSYM     SMH    MOLCAS    OPER   

 PROGRAMS   *        TOTAL       INT
 CPU TIMES  *        13.13     13.06
 REAL TIME  *        15.71 SEC
 DISK USED  *         4.98 GB      
 GA USED    *         0.00 MB       (max)       0.00 MB       (current)
 **********************************************************************************************************************************

1PROGRAM * RHF-SCF (CLOSED SHELL)       Authors: W. Meyer, H.-J. Werner


 NUMBER OF ELECTRONS:      16+   16-    SPACE SYMMETRY=1    SPIN SYMMETRY=Singlet 
 CONVERGENCE THRESHOLDS:    1.00E-05 (Density)    1.00E-07 (Energy)
 MAX. NUMBER OF ITERATIONS:       60
 INTERPOLATION TYPE:            DIIS
 INTERPOLATION STEPS:              2 (START)      1 (STEP)
 LEVEL SHIFTS:                  0.00 (CLOSED)  0.00 (OPEN) 



 Orbital guess generated from atomic densities. Full valence occupancy:   22

 Molecular orbital dump at record        2100.2

 ITERATION    DDIFF          GRAD             ENERGY        2-EL.EN.            DIPOLE MOMENTS         DIIS
    1      0.000D+00      0.000D+00      -263.64370822    411.519104    1.13736   -0.14637    0.31739    0
    2      0.000D+00      0.475D-02      -263.70826366    406.190881    0.72002    0.19335    0.18515    1
    3      0.762D-02      0.328D-02      -263.75450442    408.979894    0.82587    0.01915    0.21597    2
    4      0.317D-02      0.314D-03      -263.75502253    408.777905    0.82481    0.05613    0.21577    3
    5      0.388D-03      0.118D-03      -263.75510212    408.771743    0.82124    0.03348    0.21439    4
    6      0.158D-03      0.496D-04      -263.75511591    408.782550    0.82075    0.04298    0.21412    5
    7      0.560D-04      0.122D-04      -263.75511709    408.779469    0.82074    0.04137    0.21410    6
    8      0.191D-04      0.411D-05      -263.75511720    408.777211    0.82057    0.04181    0.21405    7
    9      0.541D-05      0.113D-05      -263.75511722    408.778149    0.82059    0.04175    0.21406    8
   10      0.215D-05      0.398D-06      -263.75511722    408.777927    0.82057    0.04177    0.21406    0

 Final occupancy:  16

 !RHF STATE 1.1 Energy               -263.755117218457
 Nuclear energy                       107.33908262
 One-electron energy                 -575.48316337
 Two-electron energy                  204.38896353
 Virial quotient                       -1.00127435
 !RHF STATE 1.1 Dipole moment           0.82057115     0.04176697     0.21405973
 Dipole moment /Debye                   2.08554722     0.10615411     0.54404993

 Orbital energies:

         1.1          2.1          3.1          4.1          5.1          6.1          7.1          8.1          9.1         10.1
    -20.633108   -20.625013   -20.567895   -11.437525    -1.510674    -1.457005    -1.358590    -0.780603    -0.726699    -0.723195

        11.1         12.1         13.1         14.1         15.1         16.1         17.1         18.1
     -0.698922    -0.694081    -0.592901    -0.525215    -0.518626    -0.502566     0.025299     0.046088


 **********************************************************************************************************************************
 DATASETS  * FILE   NREC   LENGTH (MB)   RECORD NAMES
              1      18        4.62       500      610      700      900      950      970     1000      129      960     1100   
                                          VAR    BASINP    GEOM    SYMINP    ZMAT    AOBASIS   BASIS     P2S    ABASIS      S 
                                         1400     1410     1200     1210     1080     1600     1650     1700   
                                           T        V       H0       H01     AOSYM     SMH    MOLCAS    OPER   

              2       3        1.44       700     1000     2100   
                                         GEOM     BASIS     RHF  

 PROGRAMS   *        TOTAL        HF       INT
 CPU TIMES  *        26.51     13.38     13.06
 REAL TIME  *        29.80 SEC
 DISK USED  *         5.02 GB      
 SF USED    *         0.21 MB      
 GA USED    *         0.00 MB       (max)       0.00 MB       (current)
 **********************************************************************************************************************************


1PROGRAM * CCSD (Closed-shell coupled cluster)     Authors: C. Hampel, H.-J. Werner, 1991, M. Deegan, P.J. Knowles, 1992

                                  CCSD-F12 implementation by  H.-J. Werner, 2007

                   Density fitting integral evaluation by F.R. Manby, 2003,2007, G. Knizia, 2010

 Basis set CC-PVTZ/JKFIT generated.      Number of basis functions:   376 
 Basis set AUG-CC-PVTZ/MP2FIT generated. Number of basis functions:   516 

 Convergence thresholds:  THRVAR = 1.00D-08  THRDEN = 1.00D-06

 CCSD(T)     terms to be evaluated (factor= 1.000)


 Number of core orbitals:           4 (   4 )
 Number of closed-shell orbitals:  12 (  12 )
 Number of external orbitals:     214 ( 214 )

 Molecular orbitals read from record     2100.2  Type=RHF/CANONICAL (state 1.1)

 MP2-F12 correlation treatment (H.-J. Werner, 2006)
 --------------------------------------------------

 Using MP2-F12 with ansatz 3C(FIX)

 Using projected zeroth-order Hamiltonian (+Z)

 FOCKRIB=T FOCKRIC=T FOCKRIP=T CABSP=T CABSA=T CABSK=T CABSF=T GBC=F EBC=F DMAT=T NOFIK=T NOPAO=1 SOLVE=-1  USEPAO=0
 EXCH_A= T EXCH_B= F EXCH_C= F EXCH_P= F
 
 Geminal basis:    OPTFULL  GEM_TYPE=SLATER  BETA=1.0  NGEM=6

 Optimizing Gaussian exponents for each gem_beta

 Geminal optimization for beta= 1.0000
 Weight function:   m=0, omega= 1.4646

 Augmented Hessian optimization of geminal fit. Trust ratio= 0.40000
 Convergence reached after   2 iterations. Final gradient= 8.24D-16, Step= 4.32D-06, Delta= 1.28D-09
 
 Alpha:                 0.19532     0.81920     2.85917     9.50073    35.69989   197.79328
 Coeff:                 0.27070     0.30552     0.18297     0.10986     0.06810     0.04224
 

 All pairs explicitly correlated. Number of r12-pairs:           78
 
 AO(A)-basis ORBITAL           loaded. Number of functions:     230
 RI(R)-basis CC-PVTZ/JKFIT     loaded. Number of functions:     376
 DF-basis CC-PVTZ/JKFIT        loaded. Number of functions:     376

 Screening thresholds:   THRAO=  1.00D-10  THRMO=  1.00D-09  THRPROD=  1.00D-09
                         THRSW=  1.00D-05  THROV=  1.00D-12  THRF12=   1.00D-08

 CPU time for Fock operators                      1.03 sec
 
 Construction of ABS:
 Smallest eigenvalue of S          2.34E-04  (threshold= 1.00E-08)
 Ratio eigmin/eigmax               1.67E-06  (threshold= 1.00E-09)
 Smallest eigenvalue of S kept     2.34E-04  (threshold= 2.34E-04, 0 functions deleted, 376 kept)
 
 Construction of CABS:
 Smallest eigenvalue of S          2.19E-08  (threshold= 1.00E-08)
 Ratio eigmin/eigmax               2.19E-08  (threshold= 1.00E-09)
 Smallest eigenvalue of S kept     2.19E-08  (threshold= 2.19E-08, 0 functions deleted, 376 kept)
 
 CPU time for CABS singles                        0.17 sec

 CABS-singles contribution of  -0.01591570 patched into reference energy.
 New reference energy        -263.77103292
 
 AO(A)-basis ORBITAL           loaded. Number of functions:     230
 RI(R)-basis CC-PVTZ/JKFIT     loaded. Number of functions:     376
 DF-basis AUG-CC-PVTZ/MP2FIT   loaded. Number of functions:     516

 Screening thresholds:   THRAO=  1.00D-10  THRMO=  1.00D-09  THRPROD=  1.00D-09
                         THRSW=  1.00D-05  THROV=  1.00D-12  THRF12=   1.00D-08

 CPU time for 3-index integral evaluation         3.24 sec
 CPU time for first  half transformation          0.26 sec (11463.2 MFLOP/sec)
 CPU time for second half transformation          0.01 sec (11207.8 MFLOP/sec)
 CPU time for sorting                             0.16 sec
 CPU time for fitting                             0.07 sec (19900.7 MFLOP/sec)
 CPU time for tilde quantities                    0.06 sec (30814.7 MFLOP/sec)
 CPU time for assembly                            0.83 sec (28464.7 MFLOP/sec)
 CPU time for tranop_f12                          0.93 sec (32421.5 MFLOP/sec)
 CPU time for f12 integrals (total)               7.70 sec
 F12-matrices built in  3 passes.
 F12-matrices built in  3 passes.
 F12-matrices built in  3 passes.
 F12-matrices built in  3 passes.
 FC-matrix built in  3 passes.
 CPU time for f12 matrices (total)                0.52 sec

 Diagonal F12 approximation with fixed coefficients:  TSING= 0.500,  TTRIP= 0.250 (scaled by -1/beta)

 DF-MP2-F12 energy corrections:
 ------------------------------
 Approx.                                    Singlet             Triplet             Total
 DF-MP2-F12/3*C(DX,FIX)                -0.097416004580     -0.017071275413     -0.114487279993
 DF-MP2-F12/3*C(FIX)                   -0.079757335321     -0.013546037380     -0.093303372701
 DF-MP2-F12/3C(FIX)                    -0.080139069309     -0.013595460157     -0.093734529466

 DF-MP2-F12 correlation energies:
 --------------------------------
 Approx.                                    Singlet             Triplet             Ecorr            Total Energy
 DF-MP2                                -0.539314197503     -0.346763007619     -0.886077205122   -264.657110122213
 DF-MP2-F12/3*C(DX,FIX)                -0.636730202083     -0.363834283032     -1.000564485115   -264.771597402206
 DF-MP2-F12/3*C(FIX)                   -0.619071532824     -0.360309044999     -0.979380577823   -264.750413494914
 DF-MP2-F12/3C(FIX)                    -0.619453266812     -0.360358467777     -0.979811734588   -264.750844651679

 SCS-DF-MP2 energies (F_SING= 1.20000  F_TRIP= 0.62222  F_PARALLEL= 0.33333):
 ----------------------------------------------------------------------------
 SCS-DF-MP2                            -0.862940686189   -264.633973603280
 SCS-DF-MP2-F12/3*C(DX,FIX)            -0.990462018609   -264.761494935700
 SCS-DF-MP2-F12/3*C(FIX)               -0.967078134055   -264.738111051146
 SCS-DF-MP2-F12/3C(FIX)                -0.967566966791   -264.738599883881
 Symmetry transformation completed.

 Number of N-1 electron functions:              12
 Number of N-2 electron functions:              78
 Number of singly external CSFs:              2568
 Number of doubly external CSFs:           3298596
 Total number of CSFs:                     3301165

 Pair and operator lists are different

 Length of J-op  integral file:             474.22 MB
 Length of K-op  integral file:             572.29 MB
 Length of 3-ext integral record:             0.00 MB

 For full I/O caching in triples, increase memory by 50.81 Mwords to 151.09 Mwords.

 Integral transformation finished. Total CPU:  14.38 sec, npass=  1  Memory used:  87.46 MW

 Reference energy:                   -263.77103292

 Adding F12 terms to K(Cij), methodcc=6,  factor=1.0

 ITER.      SQ.NORM     CORR.ENERGY   TOTAL ENERGY   ENERGY CHANGE        DEN1      VAR(S)    VAR(P)  DIIS     TIME
   1      1.20277703    -0.86728166  -264.63831457     0.01880473     0.04778075  0.73D-02  0.57D-02  1  1    33.75
   2      1.21732368    -0.86295770  -264.63399061     0.00432396    -0.02050386  0.83D-04  0.60D-03  2  2    43.48
   3      1.22262594    -0.86305906  -264.63409198    -0.00010137    -0.00224463  0.13D-03  0.33D-04  3  3    53.21
   4      1.22546051    -0.86292388  -264.63395680     0.00013518    -0.00141805  0.80D-05  0.42D-05  4  4    62.98
   5      1.22651771    -0.86288614  -264.63391906     0.00003773    -0.00037202  0.63D-06  0.30D-06  5  5    72.73
   6      1.22668571    -0.86285919  -264.63389210     0.00002696    -0.00000741  0.55D-07  0.29D-07  6  6    82.47
   7      1.22671972    -0.86285603  -264.63388895     0.00000315    -0.00000674  0.66D-08  0.52D-08  6  2    92.23
   8      1.22672208    -0.86285565  -264.63388856     0.00000039     0.00000159  0.97D-09  0.54D-09  6  1   102.01
   9      1.22672238    -0.86285579  -264.63388870    -0.00000014     0.00000108  0.19D-09  0.59D-10  6  4   111.79

 Norm of t1 vector:      0.10681066      S-energy:    -0.00000012      T1 diagnostic:  0.01541679
                                                                       D1 diagnostic:  0.04582830

 Adding energy correction from Wij-K(Fij), methodcc=6  factor=1.0
 
  CCSD correlation energy              -0.862855787909
  MP2-F12 correction (uncoupled)       -0.092549714074
  C*T doubles correction               -0.001487382176
  f12b correction                       0.015439136234


 Total CPU time for triples:    228.56 sec


 RESULTS
 =======

  Reference energy                   -263.755117218458
  F12 singles correction               -0.015915698633

 F12 singles corrections added to reference energy

  New reference energy               -263.771032917091

  F12a singlet correction              -0.080338557269
  F12a triplet correction              -0.013698538981
  F12a total correction                -0.094037096250

 F12a corrections for ansatz F12/3C(FIX) added to CCSD energy
 
  CCSD-F12a singlet pair energy        -0.642815827931
  CCSD-F12a triplet pair energy        -0.314076939331
  CCSD-F12a correlation energy         -0.956892884158

  Triples (T) contribution             -0.038370650475
  Total correlation energy             -0.995263534633

  CCSD-F12a total energy             -264.727925801249
  CCSD[T]-F12a energy                -264.768889565009
  CCSD-T-F12a energy                 -264.765350318197
 !CCSD(T)-F12a total energy          -264.766296451724

 F12b corrections for ansatz F12/3C(FIX) added to CCSD(T)-F12a energy

  CCSD-F12b singlet pair energy        -0.628621556912
  CCSD-F12b triplet pair energy        -0.312832074116
  CCSD-F12b correlation energy         -0.941453747925

  Triples (T) contribution             -0.038370650475
  Total correlation energy             -0.979824398400

  CCSD-F12b total energy             -264.712486665016
  CCSD[T]-F12b energy                -264.753450428775
  CCSD-T-F12b energy                 -264.749911181964
 !CCSD(T)-F12b total energy          -264.750857315491

 Timing summary (sec):

 STEP                 CPU(USER)    SYS     CPU(TOT)    WALL
 Transformation         14.49      1.23     15.72     15.73
 CCSD iterations        87.34      3.48     90.82     91.93
 Triples               228.56      2.49    231.05    231.02
 MP2-F12                 9.99      1.31     11.30     11.88
 F12b energy             7.00      0.09      7.09      7.08

 Program statistics:

 Available memory in ccsd:                99998934
 Min. memory needed in ccsd:               8644845
 Max. memory used in ccsd:                11598633
 Max. memory used in cckext:               8768967 (10 integral passes)



 **********************************************************************************************************************************
 DATASETS  * FILE   NREC   LENGTH (MB)   RECORD NAMES
              1      20      527.84       500      610      700      900      950      970     1000      129      960     1100   
                                          VAR    BASINP    GEOM    SYMINP    ZMAT    AOBASIS   BASIS     P2S    ABASIS      S 
                                         1400     1410     1200     1210     1080     1600     1650     1700      960(1)  1380   
                                           T        V       H0       H01     AOSYM     SMH    MOLCAS    OPER    ABASIS    JKOP   

              2       5        2.50       700     1000     2100     7360     7350   
                                         GEOM     BASIS     RHF    F12ABS    EF12   

 PROGRAMS   *        TOTAL   CCSD(T)        HF       INT
 CPU TIMES  *       374.18    347.66     13.38     13.06
 REAL TIME  *       387.91 SEC
 DISK USED  *         5.88 GB      
 SF USED    *         1.91 GB      
 GA USED    *         2.40 MB       (max)       0.00 MB       (current)
 **********************************************************************************************************************************

     CCSD(T)-F12        HF-SCF  
   -264.75085732   -263.75511722
 **********************************************************************************************************************************
 Variable memory released
