
 Primary working directories    : /scratch/kee
 Secondary working directories  : /scratch/kee
 Wavefunction directory         : /home/kee/wfu/
 Main file repository           : /scratch/kee/

 ARCHNAME  : Linux/x86_64
 FC        : /opt/intel/composer_xe_2015.0.090/bin/intel64/ifort
 FCVERSION : 15.0.0
 BLASLIB   : -L/opt/intel/mkl/lib/intel64 -lmkl_intel_ilp64 -lmkl_sequential -lmkl_core
 id        : emory

 Nodes     nprocs
 node25       3
 Number of processes for MPI-2 version of Molpro:   nprocs(total)=    4   nprocs(compute)=    3   nprocs(helper)=    1
 ga_uses_ma=false, calling ma_init with nominal heap.
 GA-space will be limited to   8.0 MW (determined by -G option)

 Using customized tuning parameters: mindgm=7; mindgv=32; mindgc=1; mindgr=1; noblas=0; mincuda=1000; minvec=7
 default implementation of scratch files=sf  

 ***,co2h2o
 memory,100,m
 basis avtz
 geomtype = xyz
 geometry = {
 6
       0.00000000
 O     0.00351000    1.16210700    0.00000000
 O     0.00351000   -1.16210700    0.00000000
 O     6.16968000    0.00000000    0.00000000
 H     6.75589800    0.00000000    0.75853100
 H     6.75589800    0.00000000   -0.75853100
 C     0.01968000    0.00000000    0.00000000
 }
 hf
 ccsd(t)-f12
 ---

 Variables initialized (665), CPU time= 0.00 sec
 Commands  initialized (462), CPU time= 0.01 sec, 486 directives.
 Default parameters read. Elapsed time= 0.03 sec

 Checking input...
 Passed
1


                                         ***  PROGRAM SYSTEM MOLPRO  ***
                         Copyright, University College Cardiff Consultants Limited, 2008

                                    Version 2010.1 linked 9 Dec 2014 15:06:28 


 **********************************************************************************************************************************
 LABEL *   co2h2o                                                                        
 Linux-2.6.32-504.el6.x86_64/node25(x86_64) 64 bit mpp version                           DATE: 12-Dec-16          TIME: 14:17:27  
 **********************************************************************************************************************************

 Patch level:      19
 **********************************************************************************************************************************

 Variable memory set to  100000000 words,  buffer space   230000 words

 SETTING BASIS          =    AVTZ
 SETTING GEOMTYPE       =    XYZ

Geometry recognized as XYZ



 Recomputing integrals since basis changed


 Using spherical harmonics

 Library entry O      S aug-cc-pVTZ          selected for orbital group  1
 Library entry O      P aug-cc-pVTZ          selected for orbital group  1
 Library entry O      D aug-cc-pVTZ          selected for orbital group  1
 Library entry O      F aug-cc-pVTZ          selected for orbital group  1
 Library entry H      S aug-cc-pVTZ          selected for orbital group  2
 Library entry H      P aug-cc-pVTZ          selected for orbital group  2
 Library entry H      D aug-cc-pVTZ          selected for orbital group  2
 Library entry C      S aug-cc-pVTZ          selected for orbital group  3
 Library entry C      P aug-cc-pVTZ          selected for orbital group  3
 Library entry C      D aug-cc-pVTZ          selected for orbital group  3
 Library entry C      F aug-cc-pVTZ          selected for orbital group  3

1PROGRAM * SEWARD (Integral evaluation for generally contracted gaussian basis sets)     Author: Roland Lindh, 1990

 Geometry written to block  1 of record 700


 Point group  C2v 



 ATOMIC COORDINATES

 NR  ATOM    CHARGE       X              Y              Z

   1  O       8.00    0.006632939    2.196063965    0.000000000
   2  O       8.00    0.006632939   -2.196063965    0.000000000
   3  O       8.00   11.659005519    0.000000000    0.000000000
   4  H       1.00   12.766796992    0.000000000    1.433415852
   5  H       1.00   12.766796992    0.000000000   -1.433415852
   6  C       6.00    0.037189810    0.000000000    0.000000000

 Bond lengths in Bohr (Angstrom)

 1-6  2.196276545  2-6  2.196276545  3-4  1.811596797  3-5  1.811596797
     (1.162219492)     (1.162219492)     (0.958655737)     (0.958655737)

 Bond angles

  1-6-2  178.40563223   4-3-5  104.60391356

 NUCLEAR CHARGE:                   32
 NUMBER OF PRIMITIVE AOS:         322
 NUMBER OF SYMMETRY AOS:          282
 NUMBER OF CONTRACTIONS:          230   (  84A1  +  59B1  +  54B2  +  33A2  )
 NUMBER OF CORE ORBITALS:           4   (   3A1  +   1B1  +   0B2  +   0A2  )
 NUMBER OF VALENCE ORBITALS:       18   (   8A1  +   5B1  +   4B2  +   1A2  )


 NUCLEAR REPULSION ENERGY   85.78091024


 Eigenvalues of metric

         1 0.370E-03 0.392E-03 0.899E-03 0.172E-02 0.317E-02 0.320E-02 0.402E-02 0.462E-02
         2 0.349E-03 0.922E-03 0.175E-02 0.344E-02 0.585E-02 0.743E-02 0.198E-01 0.211E-01
         3 0.393E-03 0.166E-02 0.318E-02 0.506E-02 0.622E-02 0.100E-01 0.135E-01 0.156E-01
         4 0.348E-02 0.124E-01 0.296E-01 0.363E-01 0.561E-01 0.679E-01 0.110E+00 0.139E+00


 Contracted 2-electron integrals neglected if value below      1.0D-11
 AO integral compression algorithm  1   Integral accuracy      1.0D-11

     209.977 MB (compressed) written to integral file ( 24.8%)

     Node minimum: 63.701 MB, node maximum: 77.332 MB


 NUMBER OF SORTED TWO-ELECTRON INTEGRALS:   29979201.     BUFFER LENGTH:  32768
 NUMBER OF SEGMENTS:   2  SEGMENT LENGTH:   15996954      RECORD LENGTH: 524288

 Memory used in sort:      16.55 MW

 SORT1 READ   105873272. AND WROTE    13906156. INTEGRALS IN     41 RECORDS. CPU TIME:     1.83 SEC, REAL TIME:     2.04 SEC
 SORT2 READ    41758074. AND WROTE    89930217. INTEGRALS IN    789 RECORDS. CPU TIME:     0.48 SEC, REAL TIME:     0.64 SEC

 Node minimum:    29974277.  Node maximum:    29979201. integrals

 OPERATOR DM      FOR CENTER  0  COORDINATES:    0.000000    0.000000    0.000000


 **********************************************************************************************************************************
 DATASETS  * FILE   NREC   LENGTH (MB)   RECORD NAMES
              1      18        3.23       500      610      700      900      950      970     1000      129      960     1100   
                                          VAR    BASINP    GEOM    SYMINP    ZMAT    AOBASIS   BASIS     P2S    ABASIS      S 
                                         1400     1410     1200     1210     1080     1600     1650     1700   
                                           T        V       H0       H01     AOSYM     SMH    MOLCAS    OPER   

 PROGRAMS   *        TOTAL       INT
 CPU TIMES  *         4.04      3.96
 REAL TIME  *         4.51 SEC
 DISK USED  *       708.13 MB      
 GA USED    *         0.00 MB       (max)       0.00 MB       (current)
 **********************************************************************************************************************************

1PROGRAM * RHF-SCF (CLOSED SHELL)       Authors: W. Meyer, H.-J. Werner


 NUMBER OF ELECTRONS:      16+   16-
 CONVERGENCE THRESHOLDS:    1.00E-05 (Density)    1.00E-07 (Energy)
 MAX. NUMBER OF ITERATIONS:       60
 INTERPOLATION TYPE:            DIIS
 INTERPOLATION STEPS:              2 (START)      1 (STEP)
 LEVEL SHIFTS:                  0.00 (CLOSED)  0.00 (OPEN) 



 Orbital guess generated from atomic densities. Full valence occupancy:   11   6   4   1

 Molecular orbital dump at record        2100.2

 Initial alpha occupancy:   8   5   2   1
 Initial beta  occupancy:   8   5   2   1
 Wave function symmetry:    1

 ITERATION    DDIFF          GRAD             ENERGY        2-EL.EN.            DIPOLE MOMENTS         DIIS
    1      0.000D+00      0.000D+00      -263.66072946    367.271160    1.18064    0.00000    0.00000    0
    2      0.000D+00      0.888D-02      -263.72595200    362.643629    0.69820    0.00000    0.00000    1
    3      0.143D-01      0.602D-02      -263.76911706    365.212358    0.81702    0.00000    0.00000    2
    4      0.587D-02      0.568D-03      -263.76961216    365.001598    0.82040    0.00000    0.00000    3
    5      0.695D-03      0.165D-03      -263.76967022    365.002885    0.81508    0.00000    0.00000    4
    6      0.258D-03      0.667D-04      -263.76967741    365.017552    0.81580    0.00000    0.00000    5
    7      0.857D-04      0.163D-04      -263.76967814    365.009152    0.81536    0.00000    0.00000    6
    8      0.281D-04      0.359D-05      -263.76967819    365.010458    0.81537    0.00000    0.00000    7
    9      0.768D-05      0.121D-05      -263.76967819    365.010261    0.81534    0.00000    0.00000    0

 Final occupancy:   8   5   2   1

 !RHF STATE 1.1 Energy               -263.769678191838
 Nuclear energy                        85.78091024
 One-electron energy                 -532.05571874
 Two-electron energy                  182.50513031
 Virial quotient                       -1.00182921
 !RHF STATE 1.1 Dipole moment           0.81533548     0.00000000     0.00000000
 Dipole moment /Debye                   2.07224036     0.00000000     0.00000000

 Orbital energies:

         1.1          2.1          3.1          4.1          5.1          6.1          7.1          8.1          9.1         10.1
    -20.648021   -20.568699   -11.456906    -1.525679    -1.354112    -0.796015    -0.709672    -0.585931     0.028104     0.053982

         1.2          2.2          3.2          4.2          5.2          6.2          7.2
    -20.648067    -1.472609    -0.738272    -0.539393    -0.511544     0.082868     0.148207

         1.3          2.3          3.3          4.3
     -0.718553    -0.709792     0.046532     0.078938

         1.4          2.4          3.4
     -0.539465     0.167874     0.264368


 **********************************************************************************************************************************
 DATASETS  * FILE   NREC   LENGTH (MB)   RECORD NAMES
              1      18        3.25       500      610      700      900      950      970     1000      129      960     1100   
                                          VAR    BASINP    GEOM    SYMINP    ZMAT    AOBASIS   BASIS     P2S    ABASIS      S 
                                         1400     1410     1200     1210     1080     1600     1650     1700   
                                           T        V       H0       H01     AOSYM     SMH    MOLCAS    OPER   

              2       3        0.67       700     1000     2100   
                                         GEOM     BASIS     RHF  

 PROGRAMS   *        TOTAL        HF       INT
 CPU TIMES  *         5.19      1.16      3.96
 REAL TIME  *         5.75 SEC
 DISK USED  *       725.53 MB      
 SF USED    *         0.06 MB      
 GA USED    *         0.00 MB       (max)       0.00 MB       (current)
 **********************************************************************************************************************************


1PROGRAM * CCSD (Closed-shell coupled cluster)     Authors: C. Hampel, H.-J. Werner, 1991, M. Deegan, P.J. Knowles, 1992

                                  CCSD-F12 implementation by  H.-J. Werner, 2007

                   Density fitting integral evaluation by F.R. Manby, 2003,2007, G. Knizia, 2010

 Basis set CC-PVTZ/JKFIT generated.      Number of basis functions:   376 
 Basis set AUG-CC-PVTZ/MP2FIT generated. Number of basis functions:   516 

 Convergence thresholds:  THRVAR = 1.00D-08  THRDEN = 1.00D-06

 CCSD(T)     terms to be evaluated (factor= 1.000)


 Number of core orbitals:           4 (   3   1   0   0 )
 Number of closed-shell orbitals:  12 (   5   4   2   1 )
 Number of external orbitals:     214 (  76  54  52  32 )

 Molecular orbitals read from record     2100.2  Type=RHF/CANONICAL (state 1.1)

 MP2-F12 correlation treatment (H.-J. Werner, 2006)
 --------------------------------------------------

 Using MP2-F12 with ansatz 3C(FIX)

 Using projected zeroth-order Hamiltonian (+Z)

 FOCKRIB=T FOCKRIC=T FOCKRIP=T CABSP=T CABSA=T CABSK=T CABSF=T GBC=F EBC=F DMAT=T NOFIK=T NOPAO=1 SOLVE=-1  USEPAO=0
 EXCH_A= T EXCH_B= F EXCH_C= F EXCH_P= F
 
 Geminal basis:    OPTFULL  GEM_TYPE=SLATER  BETA=1.0  NGEM=6

 Optimizing Gaussian exponents for each gem_beta

 Geminal optimization for beta= 1.0000
 Weight function:   m=0, omega= 1.4646

 Augmented Hessian optimization of geminal fit. Trust ratio= 0.40000
 Convergence reached after   2 iterations. Final gradient= 8.24D-16, Step= 4.32D-06, Delta= 1.28D-09
 
 Alpha:                 0.19532     0.81920     2.85917     9.50073    35.69989   197.79328
 Coeff:                 0.27070     0.30552     0.18297     0.10986     0.06810     0.04224
 

 Symmetry turned off. Reference energy:       -263.769678191837

 All pairs explicitly correlated. Number of r12-pairs:           78
 
 AO(A)-basis ORBITAL           loaded. Number of functions:     230
 RI(R)-basis CC-PVTZ/JKFIT     loaded. Number of functions:     376
 DF-basis CC-PVTZ/JKFIT        loaded. Number of functions:     376

 Screening thresholds:   THRAO=  1.00D-10  THRMO=  1.00D-09  THRPROD=  1.00D-09
                         THRSW=  1.00D-05  THROV=  1.00D-12  THRF12=   1.00D-08

 CPU time for Fock operators                      0.82 sec
 
 Construction of ABS:
 Smallest eigenvalue of S          2.57E-04  (threshold= 1.00E-08)
 Ratio eigmin/eigmax               1.83E-06  (threshold= 1.00E-09)
 Smallest eigenvalue of S kept     2.57E-04  (threshold= 2.57E-04, 0 functions deleted, 376 kept)
 
 Construction of CABS:
 Smallest eigenvalue of S          2.30E-08  (threshold= 1.00E-08)
 Ratio eigmin/eigmax               2.30E-08  (threshold= 1.00E-09)
 Smallest eigenvalue of S kept     2.30E-08  (threshold= 2.30E-08, 0 functions deleted, 376 kept)
 
 CPU time for CABS singles                        0.16 sec

 CABS-singles contribution of  -0.01592222 patched into reference energy.
 New reference energy        -263.78560042
 
 AO(A)-basis ORBITAL           loaded. Number of functions:     230
 RI(R)-basis CC-PVTZ/JKFIT     loaded. Number of functions:     376
 DF-basis AUG-CC-PVTZ/MP2FIT   loaded. Number of functions:     516

 Screening thresholds:   THRAO=  1.00D-10  THRMO=  1.00D-09  THRPROD=  1.00D-09
                         THRSW=  1.00D-05  THROV=  1.00D-12  THRF12=   1.00D-08

 CPU time for 3-index integral evaluation         1.93 sec
 CPU time for first  half transformation          0.21 sec (12452.0 MFLOP/sec)
 CPU time for second half transformation          0.01 sec (11105.9 MFLOP/sec)
 CPU time for sorting                             0.14 sec
 CPU time for fitting                             0.03 sec (46435.0 MFLOP/sec)
 CPU time for tilde quantities                    0.07 sec (26412.6 MFLOP/sec)
 CPU time for assembly                            0.78 sec (30294.8 MFLOP/sec)
 CPU time for tranop_f12                          0.82 sec (36781.3 MFLOP/sec)
 CPU time for f12 integrals (total)               5.99 sec
 F12-matrices built in  3 passes.
 F12-matrices built in  3 passes.
 F12-matrices built in  3 passes.
 F12-matrices built in  3 passes.
 FC-matrix built in  3 passes.
 CPU time for f12 matrices (total)                0.46 sec

 Diagonal F12 approximation with fixed coefficients:  TSING= 0.500,  TTRIP= 0.250 (scaled by -1/beta)

 DF-MP2-F12 energy corrections:
 ------------------------------
 Approx.                                    Singlet             Triplet             Total
 DF-MP2-F12/3*C(DX,FIX)                -0.097446360402     -0.016932991722     -0.114379352124
 DF-MP2-F12/3*C(FIX)                   -0.079862498907     -0.013395090057     -0.093257588964
 DF-MP2-F12/3C(FIX)                    -0.080223397502     -0.013418421792     -0.093641819294

 DF-MP2-F12 correlation energies:
 --------------------------------
 Approx.                                    Singlet             Triplet             Ecorr            Total Energy
 DF-MP2                                -0.537728719045     -0.343079206553     -0.880807925598   -264.666408341642
 DF-MP2-F12/3*C(DX,FIX)                -0.635175079447     -0.360012198275     -0.995187277722   -264.780787693766
 DF-MP2-F12/3*C(FIX)                   -0.617591217952     -0.356474296610     -0.974065514562   -264.759665930606
 DF-MP2-F12/3C(FIX)                    -0.617952116547     -0.356497628345     -0.974449744892   -264.760050160936

 SCS-DF-MP2 energies (F_SING= 1.20000  F_TRIP= 0.62222  F_PARALLEL= 0.33333):
 ----------------------------------------------------------------------------
 SCS-DF-MP2                            -0.858745969154   -264.644346385198
 SCS-DF-MP2-F12/3*C(DX,FIX)            -0.986217685374   -264.771818101418
 SCS-DF-MP2-F12/3*C(FIX)               -0.962915690544   -264.748516106588
 SCS-DF-MP2-F12/3C(FIX)                -0.963363286382   -264.748963702427

 Symmetry restored.
 Symmetry transformation completed.

 Number of N-1 electron functions:              12
 Number of N-2 electron functions:              78
 Number of singly external CSFs:               732
 Number of doubly external CSFs:            836016
 Total number of CSFs:                      836749

 Pair and operator lists are different

 Length of J-op  integral file:             462.26 MB
 Length of K-op  integral file:             502.03 MB
 Length of 3-ext integral record:             0.00 MB

 Memory could be reduced to 38.69 Mwords without degradation in triples

 Integral transformation finished. Total CPU:   1.33 sec, npass=  1  Memory used:   6.07 MW

 Reference energy:                   -263.78560042

 Adding F12 terms to K(Cij), methodcc=6,  factor=1.0

 ITER.      SQ.NORM     CORR.ENERGY   TOTAL ENERGY   ENERGY CHANGE        DEN1      VAR(S)    VAR(P)  DIIS     TIME
   1      1.20214535    -0.86276155  -264.64836196     0.01806276     0.04669147  0.72D-02  0.56D-02  1  1     9.96
   2      1.21645710    -0.85853658  -264.64413700     0.00422496    -0.02015082  0.86D-04  0.59D-03  2  2    10.85
   3      1.22181880    -0.85863327  -264.64423369    -0.00009669    -0.00236460  0.13D-03  0.32D-04  3  3    11.73
   4      1.22462139    -0.85850547  -264.64410589     0.00012780    -0.00141157  0.76D-05  0.41D-05  4  4    12.61
   5      1.22565158    -0.85846780  -264.64406822     0.00003767    -0.00036639  0.56D-06  0.29D-06  5  5    13.48
   6      1.22581377    -0.85844093  -264.64404135     0.00002687    -0.00000805  0.40D-07  0.24D-07  6  6    14.38
   7      1.22584313    -0.85843851  -264.64403893     0.00000242    -0.00000622  0.25D-08  0.40D-08  6  4    15.29
   8      1.22584343    -0.85843802  -264.64403844     0.00000049     0.00000194  0.39D-09  0.27D-09  6  1    16.19
   9      1.22584404    -0.85843809  -264.64403850    -0.00000007     0.00000056  0.25D-10  0.21D-10  6  2    17.09

 Norm of t1 vector:      0.10597213      S-energy:    -0.00000003      T1 diagnostic:  0.01529576
                                                                       D1 diagnostic:  0.04496676

 Adding energy correction from Wij-K(Fij), methodcc=6  factor=1.0
 
  CCSD correlation energy              -0.858438088592
  MP2-F12 correction (uncoupled)       -0.092485433629
  C*T doubles correction               -0.001475319130
  f12b correction                       0.015406559291


 Total CPU time for triples:     25.05 sec


 RESULTS
 =======

  Reference energy                   -263.769678191837
  F12 singles correction               -0.015922224207

 F12 singles corrections added to reference energy

  New reference energy               -263.785600416044

  F12a singlet correction              -0.080423690378
  F12a triplet correction              -0.013537062382
  F12a total correction                -0.093960752759

 F12a corrections for ansatz F12/3C(FIX) added to CCSD energy
 
  CCSD-F12a singlet pair energy        -0.641889898095
  CCSD-F12a triplet pair energy        -0.310508915963
  CCSD-F12a correlation energy         -0.952398841351

  Triples (T) contribution             -0.037640354334
  Total correlation energy             -0.990039195685

  CCSD-F12a total energy             -264.737999257395
  CCSD[T]-F12a energy                -264.778182843313
  CCSD-T-F12a energy                 -264.774702284742
 !CCSD(T)-F12a total energy          -264.775639611729

 F12b corrections for ansatz F12/3C(FIX) added to CCSD(T)-F12a energy

  CCSD-F12b singlet pair energy        -0.627706639182
  CCSD-F12b triplet pair energy        -0.309285615584
  CCSD-F12b correlation energy         -0.936992282060

  Triples (T) contribution             -0.037640354334
  Total correlation energy             -0.974632636393

  CCSD-F12b total energy             -264.722592698104
  CCSD[T]-F12b energy                -264.762776284022
  CCSD-T-F12b energy                 -264.759295725451
 !CCSD(T)-F12b total energy          -264.760233052438

 Timing summary (sec):

 STEP                 CPU(USER)    SYS     CPU(TOT)    WALL
 Transformation          1.33      0.21      1.54      1.55
 CCSD iterations         7.98      0.64      8.62      8.60
 Triples                25.05      0.73     25.78     25.78
 MP2-F12                 7.79      1.15      8.94      8.95
 F12b energy             0.54      0.01      0.55      0.54

 Program statistics:

 Available memory in ccsd:                99998934
 Min. memory needed in ccsd:               2244783
 Max. memory used in ccsd:                 3005571
 Max. memory used in cckext:               2769663 (10 integral passes)



 **********************************************************************************************************************************
 DATASETS  * FILE   NREC   LENGTH (MB)   RECORD NAMES
              1      20      137.19       500      610      700      900      950      970     1000      129      960     1100   
                                          VAR    BASINP    GEOM    SYMINP    ZMAT    AOBASIS   BASIS     P2S    ABASIS      S 
                                         1400     1410     1200     1210     1080     1600     1650     1700      960(1)  1380   
                                           T        V       H0       H01     AOSYM     SMH    MOLCAS    OPER    ABASIS    JKOP   

              2       5        0.97       700     1000     2100     7360     7350   
                                         GEOM     BASIS     RHF    F12ABS    EF12   

 PROGRAMS   *        TOTAL   CCSD(T)        HF       INT
 CPU TIMES  *        48.04     42.85      1.16      3.96
 REAL TIME  *        51.47 SEC
 DISK USED  *       947.19 MB      
 SF USED    *         1.33 GB      
 GA USED    *         2.40 MB       (max)       0.00 MB       (current)
 **********************************************************************************************************************************

     CCSD(T)-F12        HF-SCF  
   -264.76023305   -263.76967819
 **********************************************************************************************************************************
 Variable memory released
