
 Primary working directories    : /scratch/kee
 Secondary working directories  : /scratch/kee
 Wavefunction directory         : /home/kee/wfu/
 Main file repository           : /scratch/kee/

 ARCHNAME  : Linux/x86_64
 FC        : /opt/intel/composer_xe_2015.0.090/bin/intel64/ifort
 FCVERSION : 15.0.0
 BLASLIB   : -L/opt/intel/mkl/lib/intel64 -lmkl_intel_ilp64 -lmkl_sequential -lmkl_core
 id        : emory

 Nodes     nprocs
 node25       3
 Number of processes for MPI-2 version of Molpro:   nprocs(total)=    4   nprocs(compute)=    3   nprocs(helper)=    1
 ga_uses_ma=false, calling ma_init with nominal heap.
 GA-space will be limited to   8.0 MW (determined by -G option)

 Using customized tuning parameters: mindgm=7; mindgv=32; mindgc=1; mindgr=1; noblas=0; mincuda=1000; minvec=7
 default implementation of scratch files=sf  

 ***,co2h2o
 memory,100,m
 basis avtz
 geomtype = xyz
 geometry = {
 6
       0.00000000
 O     0.00351000    1.16210700    0.00000000
 O     0.00351000   -1.16210700    0.00000000
 O     6.46968000    0.00000000    0.00000000
 H     7.05589800    0.00000000    0.75853100
 H     7.05589800    0.00000000   -0.75853100
 C     0.01968000    0.00000000    0.00000000
 }
 hf
 ccsd(t)-f12
 ---

 Variables initialized (665), CPU time= 0.01 sec
 Commands  initialized (462), CPU time= 0.00 sec, 486 directives.
 Default parameters read. Elapsed time= 0.03 sec

 Checking input...
 Passed
1


                                         ***  PROGRAM SYSTEM MOLPRO  ***
                         Copyright, University College Cardiff Consultants Limited, 2008

                                    Version 2010.1 linked 9 Dec 2014 15:06:28 


 **********************************************************************************************************************************
 LABEL *   co2h2o                                                                        
 Linux-2.6.32-504.el6.x86_64/node25(x86_64) 64 bit mpp version                           DATE: 12-Dec-16          TIME: 14:22:58  
 **********************************************************************************************************************************

 Patch level:      19
 **********************************************************************************************************************************

 Variable memory set to  100000000 words,  buffer space   230000 words

 SETTING BASIS          =    AVTZ
 SETTING GEOMTYPE       =    XYZ

Geometry recognized as XYZ



 Recomputing integrals since basis changed


 Using spherical harmonics

 Library entry O      S aug-cc-pVTZ          selected for orbital group  1
 Library entry O      P aug-cc-pVTZ          selected for orbital group  1
 Library entry O      D aug-cc-pVTZ          selected for orbital group  1
 Library entry O      F aug-cc-pVTZ          selected for orbital group  1
 Library entry H      S aug-cc-pVTZ          selected for orbital group  2
 Library entry H      P aug-cc-pVTZ          selected for orbital group  2
 Library entry H      D aug-cc-pVTZ          selected for orbital group  2
 Library entry C      S aug-cc-pVTZ          selected for orbital group  3
 Library entry C      P aug-cc-pVTZ          selected for orbital group  3
 Library entry C      D aug-cc-pVTZ          selected for orbital group  3
 Library entry C      F aug-cc-pVTZ          selected for orbital group  3

1PROGRAM * SEWARD (Integral evaluation for generally contracted gaussian basis sets)     Author: Roland Lindh, 1990

 Geometry written to block  1 of record 700


 Point group  C2v 



 ATOMIC COORDINATES

 NR  ATOM    CHARGE       X              Y              Z

   1  O       8.00    0.006632939    2.196063965    0.000000000
   2  O       8.00    0.006632939   -2.196063965    0.000000000
   3  O       8.00   12.225923358    0.000000000    0.000000000
   4  H       1.00   13.333714831    0.000000000    1.433415852
   5  H       1.00   13.333714831    0.000000000   -1.433415852
   6  C       6.00    0.037189810    0.000000000    0.000000000

 Bond lengths in Bohr (Angstrom)

 1-6  2.196276545  2-6  2.196276545  3-4  1.811596797  3-5  1.811596797
     (1.162219492)     (1.162219492)     (0.958655737)     (0.958655737)

 Bond angles

  1-6-2  178.40563223   4-3-5  104.60391356

 NUCLEAR CHARGE:                   32
 NUMBER OF PRIMITIVE AOS:         322
 NUMBER OF SYMMETRY AOS:          282
 NUMBER OF CONTRACTIONS:          230   (  84A1  +  59B1  +  54B2  +  33A2  )
 NUMBER OF CORE ORBITALS:           4   (   3A1  +   1B1  +   0B2  +   0A2  )
 NUMBER OF VALENCE ORBITALS:       18   (   8A1  +   5B1  +   4B2  +   1A2  )


 NUCLEAR REPULSION ENERGY   84.96403058


 Eigenvalues of metric

         1 0.373E-03 0.391E-03 0.899E-03 0.173E-02 0.317E-02 0.320E-02 0.403E-02 0.475E-02
         2 0.349E-03 0.922E-03 0.175E-02 0.346E-02 0.588E-02 0.744E-02 0.201E-01 0.212E-01
         3 0.394E-03 0.166E-02 0.318E-02 0.507E-02 0.622E-02 0.100E-01 0.135E-01 0.156E-01
         4 0.348E-02 0.124E-01 0.296E-01 0.363E-01 0.561E-01 0.679E-01 0.110E+00 0.139E+00


 Contracted 2-electron integrals neglected if value below      1.0D-11
 AO integral compression algorithm  1   Integral accuracy      1.0D-11

     201.589 MB (compressed) written to integral file ( 24.2%)

     Node minimum: 60.555 MB, node maximum: 74.449 MB


 NUMBER OF SORTED TWO-ELECTRON INTEGRALS:   29979201.     BUFFER LENGTH:  32768
 NUMBER OF SEGMENTS:   2  SEGMENT LENGTH:   15996954      RECORD LENGTH: 524288

 Memory used in sort:      16.55 MW

 SORT1 READ   104013180. AND WROTE    13133812. INTEGRALS IN     39 RECORDS. CPU TIME:     1.79 SEC, REAL TIME:     1.96 SEC
 SORT2 READ    39423192. AND WROTE    89930217. INTEGRALS IN    762 RECORDS. CPU TIME:     0.48 SEC, REAL TIME:     0.59 SEC

 Node minimum:    29974277.  Node maximum:    29979201. integrals

 OPERATOR DM      FOR CENTER  0  COORDINATES:    0.000000    0.000000    0.000000


 **********************************************************************************************************************************
 DATASETS  * FILE   NREC   LENGTH (MB)   RECORD NAMES
              1      18        3.23       500      610      700      900      950      970     1000      129      960     1100   
                                          VAR    BASINP    GEOM    SYMINP    ZMAT    AOBASIS   BASIS     P2S    ABASIS      S 
                                         1400     1410     1200     1210     1080     1600     1650     1700   
                                           T        V       H0       H01     AOSYM     SMH    MOLCAS    OPER   

 PROGRAMS   *        TOTAL       INT
 CPU TIMES  *         3.87      3.80
 REAL TIME  *         4.28 SEC
 DISK USED  *       669.67 MB      
 GA USED    *         0.00 MB       (max)       0.00 MB       (current)
 **********************************************************************************************************************************

1PROGRAM * RHF-SCF (CLOSED SHELL)       Authors: W. Meyer, H.-J. Werner


 NUMBER OF ELECTRONS:      16+   16-
 CONVERGENCE THRESHOLDS:    1.00E-05 (Density)    1.00E-07 (Energy)
 MAX. NUMBER OF ITERATIONS:       60
 INTERPOLATION TYPE:            DIIS
 INTERPOLATION STEPS:              2 (START)      1 (STEP)
 LEVEL SHIFTS:                  0.00 (CLOSED)  0.00 (OPEN) 



 Orbital guess generated from atomic densities. Full valence occupancy:   11   6   4   1

 Molecular orbital dump at record        2100.2

 Initial alpha occupancy:   8   5   2   1
 Initial beta  occupancy:   8   5   2   1
 Wave function symmetry:    1

 ITERATION    DDIFF          GRAD             ENERGY        2-EL.EN.            DIPOLE MOMENTS         DIIS
    1      0.000D+00      0.000D+00      -263.66063539    365.613393    1.18063    0.00000    0.00000    0
    2      0.000D+00      0.888D-02      -263.72587433    360.993491    0.69558    0.00000    0.00000    1
    3      0.143D-01      0.603D-02      -263.76907859    363.561605    0.81522    0.00000    0.00000    2
    4      0.587D-02      0.568D-03      -263.76957370    363.350488    0.81864    0.00000    0.00000    3
    5      0.695D-03      0.165D-03      -263.76963176    363.352004    0.81329    0.00000    0.00000    4
    6      0.258D-03      0.667D-04      -263.76963895    363.366618    0.81401    0.00000    0.00000    5
    7      0.856D-04      0.163D-04      -263.76963968    363.358230    0.81356    0.00000    0.00000    6
    8      0.281D-04      0.359D-05      -263.76963973    363.359535    0.81357    0.00000    0.00000    7
    9      0.768D-05      0.121D-05      -263.76963973    363.359338    0.81354    0.00000    0.00000    0

 Final occupancy:   8   5   2   1

 !RHF STATE 1.1 Energy               -263.769639728188
 Nuclear energy                        84.96403058
 One-electron energy                 -530.41333953
 Two-electron energy                  181.67966922
 Virial quotient                       -1.00182871
 !RHF STATE 1.1 Dipole moment           0.81353996     0.00000000     0.00000000
 Dipole moment /Debye                   2.06767690     0.00000000     0.00000000

 Orbital energies:

         1.1          2.1          3.1          4.1          5.1          6.1          7.1          8.1          9.1         10.1
    -20.648493   -20.568535   -11.457365    -1.526151    -1.353945    -0.796471    -0.710156    -0.585742     0.028167     0.053232

         1.2          2.2          3.2          4.2          5.2          6.2          7.2
    -20.648538    -1.473078    -0.738725    -0.539861    -0.511374     0.082531     0.149330

         1.3          2.3          3.3          4.3
     -0.718386    -0.710256     0.046638     0.078270

         1.4          2.4          3.4
     -0.539924     0.167613     0.264446


 **********************************************************************************************************************************
 DATASETS  * FILE   NREC   LENGTH (MB)   RECORD NAMES
              1      18        3.25       500      610      700      900      950      970     1000      129      960     1100   
                                          VAR    BASINP    GEOM    SYMINP    ZMAT    AOBASIS   BASIS     P2S    ABASIS      S 
                                         1400     1410     1200     1210     1080     1600     1650     1700   
                                           T        V       H0       H01     AOSYM     SMH    MOLCAS    OPER   

              2       3        0.67       700     1000     2100   
                                         GEOM     BASIS     RHF  

 PROGRAMS   *        TOTAL        HF       INT
 CPU TIMES  *         5.01      1.13      3.80
 REAL TIME  *         5.50 SEC
 DISK USED  *       687.07 MB      
 SF USED    *         0.06 MB      
 GA USED    *         0.00 MB       (max)       0.00 MB       (current)
 **********************************************************************************************************************************


1PROGRAM * CCSD (Closed-shell coupled cluster)     Authors: C. Hampel, H.-J. Werner, 1991, M. Deegan, P.J. Knowles, 1992

                                  CCSD-F12 implementation by  H.-J. Werner, 2007

                   Density fitting integral evaluation by F.R. Manby, 2003,2007, G. Knizia, 2010

 Basis set CC-PVTZ/JKFIT generated.      Number of basis functions:   376 
 Basis set AUG-CC-PVTZ/MP2FIT generated. Number of basis functions:   516 

 Convergence thresholds:  THRVAR = 1.00D-08  THRDEN = 1.00D-06

 CCSD(T)     terms to be evaluated (factor= 1.000)


 Number of core orbitals:           4 (   3   1   0   0 )
 Number of closed-shell orbitals:  12 (   5   4   2   1 )
 Number of external orbitals:     214 (  76  54  52  32 )

 Molecular orbitals read from record     2100.2  Type=RHF/CANONICAL (state 1.1)

 MP2-F12 correlation treatment (H.-J. Werner, 2006)
 --------------------------------------------------

 Using MP2-F12 with ansatz 3C(FIX)

 Using projected zeroth-order Hamiltonian (+Z)

 FOCKRIB=T FOCKRIC=T FOCKRIP=T CABSP=T CABSA=T CABSK=T CABSF=T GBC=F EBC=F DMAT=T NOFIK=T NOPAO=1 SOLVE=-1  USEPAO=0
 EXCH_A= T EXCH_B= F EXCH_C= F EXCH_P= F
 
 Geminal basis:    OPTFULL  GEM_TYPE=SLATER  BETA=1.0  NGEM=6

 Optimizing Gaussian exponents for each gem_beta

 Geminal optimization for beta= 1.0000
 Weight function:   m=0, omega= 1.4646

 Augmented Hessian optimization of geminal fit. Trust ratio= 0.40000
 Convergence reached after   2 iterations. Final gradient= 8.24D-16, Step= 4.32D-06, Delta= 1.28D-09
 
 Alpha:                 0.19532     0.81920     2.85917     9.50073    35.69989   197.79328
 Coeff:                 0.27070     0.30552     0.18297     0.10986     0.06810     0.04224
 

 Symmetry turned off. Reference energy:       -263.769639728188

 All pairs explicitly correlated. Number of r12-pairs:           78
 
 AO(A)-basis ORBITAL           loaded. Number of functions:     230
 RI(R)-basis CC-PVTZ/JKFIT     loaded. Number of functions:     376
 DF-basis CC-PVTZ/JKFIT        loaded. Number of functions:     376

 Screening thresholds:   THRAO=  1.00D-10  THRMO=  1.00D-09  THRPROD=  1.00D-09
                         THRSW=  1.00D-05  THROV=  1.00D-12  THRF12=   1.00D-08

 CPU time for Fock operators                      0.88 sec
 
 Construction of ABS:
 Smallest eigenvalue of S          2.57E-04  (threshold= 1.00E-08)
 Ratio eigmin/eigmax               1.83E-06  (threshold= 1.00E-09)
 Smallest eigenvalue of S kept     2.57E-04  (threshold= 2.57E-04, 0 functions deleted, 376 kept)
 
 Construction of CABS:
 Smallest eigenvalue of S          2.30E-08  (threshold= 1.00E-08)
 Ratio eigmin/eigmax               2.30E-08  (threshold= 1.00E-09)
 Smallest eigenvalue of S kept     2.30E-08  (threshold= 2.30E-08, 0 functions deleted, 376 kept)
 
 CPU time for CABS singles                        0.16 sec

 CABS-singles contribution of  -0.01592258 patched into reference energy.
 New reference energy        -263.78556231
 
 AO(A)-basis ORBITAL           loaded. Number of functions:     230
 RI(R)-basis CC-PVTZ/JKFIT     loaded. Number of functions:     376
 DF-basis AUG-CC-PVTZ/MP2FIT   loaded. Number of functions:     516

 Screening thresholds:   THRAO=  1.00D-10  THRMO=  1.00D-09  THRPROD=  1.00D-09
                         THRSW=  1.00D-05  THROV=  1.00D-12  THRF12=   1.00D-08

 CPU time for 3-index integral evaluation         1.81 sec
 CPU time for first  half transformation          0.25 sec (10771.6 MFLOP/sec)
 CPU time for second half transformation          0.01 sec (10087.6 MFLOP/sec)
 CPU time for sorting                             0.14 sec
 CPU time for fitting                             0.04 sec (34826.3 MFLOP/sec)
 CPU time for tilde quantities                    0.07 sec (26412.6 MFLOP/sec)
 CPU time for assembly                            0.77 sec (29220.6 MFLOP/sec)
 CPU time for tranop_f12                          0.86 sec (34148.4 MFLOP/sec)
 CPU time for f12 integrals (total)               5.96 sec
 F12-matrices built in  3 passes.
 F12-matrices built in  3 passes.
 F12-matrices built in  3 passes.
 F12-matrices built in  3 passes.
 FC-matrix built in  3 passes.
 CPU time for f12 matrices (total)                0.49 sec

 Diagonal F12 approximation with fixed coefficients:  TSING= 0.500,  TTRIP= 0.250 (scaled by -1/beta)

 DF-MP2-F12 energy corrections:
 ------------------------------
 Approx.                                    Singlet             Triplet             Total
 DF-MP2-F12/3*C(DX,FIX)                -0.097447048662     -0.016933097362     -0.114380146024
 DF-MP2-F12/3*C(FIX)                   -0.079863072609     -0.013395211579     -0.093258284188
 DF-MP2-F12/3C(FIX)                    -0.080223910504     -0.013418529474     -0.093642439978

 DF-MP2-F12 correlation energies:
 --------------------------------
 Approx.                                    Singlet             Triplet             Ecorr            Total Energy
 DF-MP2                                -0.537731687149     -0.343078808871     -0.880810496020   -264.666372803037
 DF-MP2-F12/3*C(DX,FIX)                -0.635178735811     -0.360011906233     -0.995190642044   -264.780752949061
 DF-MP2-F12/3*C(FIX)                   -0.617594759758     -0.356474020450     -0.974068780208   -264.759631087225
 DF-MP2-F12/3C(FIX)                    -0.617955597653     -0.356497338345     -0.974452935998   -264.760015243015

 SCS-DF-MP2 energies (F_SING= 1.20000  F_TRIP= 0.62222  F_PARALLEL= 0.33333):
 ----------------------------------------------------------------------------
 SCS-DF-MP2                            -0.858749283432   -264.644311590449
 SCS-DF-MP2-F12/3*C(DX,FIX)            -0.986221891296   -264.771784198313
 SCS-DF-MP2-F12/3*C(FIX)               -0.962919768879   -264.748482075896
 SCS-DF-MP2-F12/3C(FIX)                -0.963367283265   -264.748929590282

 Symmetry restored.
 Symmetry transformation completed.

 Number of N-1 electron functions:              12
 Number of N-2 electron functions:              78
 Number of singly external CSFs:               732
 Number of doubly external CSFs:            836016
 Total number of CSFs:                      836749

 Pair and operator lists are different

 Length of J-op  integral file:             462.26 MB
 Length of K-op  integral file:             502.03 MB
 Length of 3-ext integral record:             0.00 MB

 Memory could be reduced to 38.69 Mwords without degradation in triples

 Integral transformation finished. Total CPU:   1.48 sec, npass=  1  Memory used:   6.07 MW

 Reference energy:                   -263.78556231

 Adding F12 terms to K(Cij), methodcc=6,  factor=1.0

 ITER.      SQ.NORM     CORR.ENERGY   TOTAL ENERGY   ENERGY CHANGE        DEN1      VAR(S)    VAR(P)  DIIS     TIME
   1      1.20214792    -0.86276323  -264.64832553     0.01806368     0.04669413  0.72D-02  0.56D-02  1  1    10.24
   2      1.21646022    -0.85853756  -264.64409987     0.00422567    -0.02015176  0.86D-04  0.59D-03  2  2    11.18
   3      1.22182184    -0.85863412  -264.64419642    -0.00009656    -0.00236454  0.13D-03  0.32D-04  3  3    12.11
   4      1.22462436    -0.85850629  -264.64406860     0.00012782    -0.00141157  0.76D-05  0.41D-05  4  4    13.05
   5      1.22565454    -0.85846861  -264.64403092     0.00003768    -0.00036640  0.56D-06  0.29D-06  5  5    13.95
   6      1.22581673    -0.85844175  -264.64400406     0.00002686    -0.00000805  0.40D-07  0.24D-07  6  6    14.88
   7      1.22584609    -0.85843933  -264.64400163     0.00000242    -0.00000622  0.25D-08  0.40D-08  6  4    15.80
   8      1.22584639    -0.85843884  -264.64400115     0.00000049     0.00000195  0.39D-09  0.27D-09  6  1    16.77
   9      1.22584700    -0.85843890  -264.64400121    -0.00000007     0.00000056  0.25D-10  0.21D-10  6  2    17.70

 Norm of t1 vector:      0.10597166      S-energy:    -0.00000003      T1 diagnostic:  0.01529569
                                                                       D1 diagnostic:  0.04496282

 Adding energy correction from Wij-K(Fij), methodcc=6  factor=1.0
 
  CCSD correlation energy              -0.858438904266
  MP2-F12 correction (uncoupled)       -0.092485953348
  C*T doubles correction               -0.001475428343
  f12b correction                       0.015406616865


 Total CPU time for triples:     33.77 sec


 RESULTS
 =======

  Reference energy                   -263.769639728188
  F12 singles correction               -0.015922578829

 F12 singles corrections added to reference energy

  New reference energy               -263.785562307017

  F12a singlet correction              -0.080424214694
  F12a triplet correction              -0.013537166996
  F12a total correction                -0.093961381691

 F12a corrections for ansatz F12/3C(FIX) added to CCSD energy
 
  CCSD-F12a singlet pair energy        -0.641893512208
  CCSD-F12a triplet pair energy        -0.310506746557
  CCSD-F12a correlation energy         -0.952400285957

  Triples (T) contribution             -0.037640443787
  Total correlation energy             -0.990040729744

  CCSD-F12a total energy             -264.737962592974
  CCSD[T]-F12a energy                -264.778146451862
  CCSD-T-F12a energy                 -264.774665608656
 !CCSD(T)-F12a total energy          -264.775603036761

 F12b corrections for ansatz F12/3C(FIX) added to CCSD(T)-F12a energy

  CCSD-F12b singlet pair energy        -0.627710191197
  CCSD-F12b triplet pair energy        -0.309283450703
  CCSD-F12b correlation energy         -0.936993669091

  Triples (T) contribution             -0.037640443787
  Total correlation energy             -0.974634112879

  CCSD-F12b total energy             -264.722555976108
  CCSD[T]-F12b energy                -264.762739834997
  CCSD-T-F12b energy                 -264.759258991791
 !CCSD(T)-F12b total energy          -264.760196419896

 Timing summary (sec):

 STEP                 CPU(USER)    SYS     CPU(TOT)    WALL
 Transformation          1.49      0.22      1.71      1.71
 CCSD iterations         8.32      0.68      9.00      9.00
 Triples                33.77      0.90     34.67     34.66
 MP2-F12                 7.89      1.07      8.96      8.95
 F12b energy             0.55      0.01      0.56      0.56

 Program statistics:

 Available memory in ccsd:                99998934
 Min. memory needed in ccsd:               2244783
 Max. memory used in ccsd:                 3005571
 Max. memory used in cckext:               2769663 (10 integral passes)



 **********************************************************************************************************************************
 DATASETS  * FILE   NREC   LENGTH (MB)   RECORD NAMES
              1      20      137.19       500      610      700      900      950      970     1000      129      960     1100   
                                          VAR    BASINP    GEOM    SYMINP    ZMAT    AOBASIS   BASIS     P2S    ABASIS      S 
                                         1400     1410     1200     1210     1080     1600     1650     1700      960(1)  1380   
                                           T        V       H0       H01     AOSYM     SMH    MOLCAS    OPER    ABASIS    JKOP   

              2       5        0.97       700     1000     2100     7360     7350   
                                         GEOM     BASIS     RHF    F12ABS    EF12   

 PROGRAMS   *        TOTAL   CCSD(T)        HF       INT
 CPU TIMES  *        57.08     52.06      1.13      3.80
 REAL TIME  *        60.67 SEC
 DISK USED  *       908.73 MB      
 SF USED    *         1.33 GB      
 GA USED    *         2.40 MB       (max)       0.00 MB       (current)
 **********************************************************************************************************************************

     CCSD(T)-F12        HF-SCF  
   -264.76019642   -263.76963973
 **********************************************************************************************************************************
 Variable memory released
