
 Primary working directories    : /scratch/kee
 Secondary working directories  : /scratch/kee
 Wavefunction directory         : /home/kee/wfu/
 Main file repository           : /scratch/kee/

 ARCHNAME  : Linux/x86_64
 FC        : /opt/intel/composer_xe_2015.0.090/bin/intel64/ifort
 FCVERSION : 15.0.0
 BLASLIB   : -L/opt/intel/mkl/lib/intel64 -lmkl_intel_ilp64 -lmkl_sequential -lmkl_core
 id        : emory

 Nodes     nprocs
 node22       3
 Number of processes for MPI-2 version of Molpro:   nprocs(total)=    4   nprocs(compute)=    3   nprocs(helper)=    1
 ga_uses_ma=false, calling ma_init with nominal heap.
 GA-space will be limited to   8.0 MW (determined by -G option)

 Using customized tuning parameters: mindgm=7; mindgv=32; mindgc=1; mindgr=1; noblas=0; mincuda=1000; minvec=7
 default implementation of scratch files=sf  

 ***,co2h2o
 memory,100,m
 basis avtz
 geomtype = xyz
 geometry = {
 6
    -264.76489694
 O     0.82869278    1.16169550    0.00000000
 O     0.82658011   -1.16233555    0.00000000
 O    -7.19123419    0.00283735    0.00000000
 H    -7.77486720    0.76343200    0.00000000
 H    -7.77459909   -0.75796457    0.00000000
 C     0.80876519   -0.00029961    0.00000000
 }
 hf
 ccsd(t)-f12
 ---

 Variables initialized (665), CPU time= 0.01 sec
 Commands  initialized (462), CPU time= 0.01 sec, 486 directives.
 Default parameters read. Elapsed time= 0.06 sec

 Checking input...
 Passed
1


                                         ***  PROGRAM SYSTEM MOLPRO  ***
                         Copyright, University College Cardiff Consultants Limited, 2008

                                    Version 2010.1 linked 9 Dec 2014 15:06:28 


 **********************************************************************************************************************************
 LABEL *   co2h2o                                                                        
 Linux-2.6.32-504.el6.x86_64/node22(x86_64) 64 bit mpp version                           DATE: 06-Dec-16          TIME: 23:42:53  
 **********************************************************************************************************************************

 Patch level:      19
 **********************************************************************************************************************************

 Variable memory set to  100000000 words,  buffer space   230000 words

 SETTING BASIS          =    AVTZ
 SETTING GEOMTYPE       =    XYZ

Geometry recognized as XYZ



 Recomputing integrals since basis changed


 Using spherical harmonics

 Library entry O      S aug-cc-pVTZ          selected for orbital group  1
 Library entry O      P aug-cc-pVTZ          selected for orbital group  1
 Library entry O      D aug-cc-pVTZ          selected for orbital group  1
 Library entry O      F aug-cc-pVTZ          selected for orbital group  1
 Library entry H      S aug-cc-pVTZ          selected for orbital group  2
 Library entry H      P aug-cc-pVTZ          selected for orbital group  2
 Library entry H      D aug-cc-pVTZ          selected for orbital group  2
 Library entry C      S aug-cc-pVTZ          selected for orbital group  3
 Library entry C      P aug-cc-pVTZ          selected for orbital group  3
 Library entry C      D aug-cc-pVTZ          selected for orbital group  3
 Library entry C      F aug-cc-pVTZ          selected for orbital group  3

1PROGRAM * SEWARD (Integral evaluation for generally contracted gaussian basis sets)     Author: Roland Lindh, 1990

 Geometry written to block  1 of record 700


 Point group  Cs  



 ATOMIC COORDINATES

 NR  ATOM    CHARGE       X              Y              Z

   1  O       8.00    1.566002401    2.195286343    0.000000000
   2  O       8.00    1.562010034   -2.196495862    0.000000000
   3  O       8.00  -13.589463166    0.005361814    0.000000000
   4  H       1.00  -14.692369716    1.442677400    0.000000000
   5  H       1.00  -14.691863062   -1.432345455    0.000000000
   6  C       6.00    1.528344714   -0.000566181    0.000000000

 Bond lengths in Bohr (Angstrom)

 1-6  2.196175405  2-6  2.196187724  3-4  1.811706088  3-5  1.811708509
     (1.162165971)     (1.162172490)     (0.958713571)     (0.958714852)

 Bond angles

  1-6-2  178.13918425   4-3-5  105.01947441

 NUCLEAR CHARGE:                   32
 NUMBER OF PRIMITIVE AOS:         322
 NUMBER OF SYMMETRY AOS:          282
 NUMBER OF CONTRACTIONS:          230   ( 152A'  +  78A"  )
 NUMBER OF CORE ORBITALS:           4   (   4A'  +   0A"  )
 NUMBER OF VALENCE ORBITALS:       18   (  14A'  +   4A"  )


 NUCLEAR REPULSION ENERGY   81.67946562


 Eigenvalues of metric

         1 0.349E-03 0.373E-03 0.393E-03 0.417E-03 0.902E-03 0.922E-03 0.167E-02 0.175E-02
         2 0.318E-02 0.348E-02 0.595E-02 0.124E-01 0.136E-01 0.296E-01 0.296E-01 0.319E-01


 Contracted 2-electron integrals neglected if value below      1.0D-11
 AO integral compression algorithm  1   Integral accuracy      1.0D-11

     305.922 MB (compressed) written to integral file ( 24.0%)

     Node minimum: 98.042 MB, node maximum: 105.906 MB


 NUMBER OF SORTED TWO-ELECTRON INTEGRALS:   59950380.     BUFFER LENGTH:  32768
 NUMBER OF SEGMENTS:   4  SEGMENT LENGTH:   15995235      RECORD LENGTH: 524288

 Memory used in sort:      16.55 MW

 SORT1 READ   159249893. AND WROTE    21277189. INTEGRALS IN     63 RECORDS. CPU TIME:     1.80 SEC, REAL TIME:     2.09 SEC
 SORT2 READ    63888312. AND WROTE   179836431. INTEGRALS IN   1122 RECORDS. CPU TIME:     0.70 SEC, REAL TIME:     0.93 SEC

 Node minimum:    59940574.  Node maximum:    59950380. integrals

 OPERATOR DM      FOR CENTER  0  COORDINATES:    0.000000    0.000000    0.000000


 **********************************************************************************************************************************
 DATASETS  * FILE   NREC   LENGTH (MB)   RECORD NAMES
              1      18        3.74       500      610      700      900      950      970     1000      129      960     1100   
                                          VAR    BASINP    GEOM    SYMINP    ZMAT    AOBASIS   BASIS     P2S    ABASIS      S 
                                         1400     1410     1200     1210     1080     1600     1650     1700   
                                           T        V       H0       H01     AOSYM     SMH    MOLCAS    OPER   

 PROGRAMS   *        TOTAL       INT
 CPU TIMES  *         5.35      5.23
 REAL TIME  *         6.03 SEC
 DISK USED  *         1.07 GB      
 GA USED    *         0.00 MB       (max)       0.00 MB       (current)
 **********************************************************************************************************************************

1PROGRAM * RHF-SCF (CLOSED SHELL)       Authors: W. Meyer, H.-J. Werner


 NUMBER OF ELECTRONS:      16+   16-
 CONVERGENCE THRESHOLDS:    1.00E-05 (Density)    1.00E-07 (Energy)
 MAX. NUMBER OF ITERATIONS:       60
 INTERPOLATION TYPE:            DIIS
 INTERPOLATION STEPS:              2 (START)      1 (STEP)
 LEVEL SHIFTS:                  0.00 (CLOSED)  0.00 (OPEN) 



 Orbital guess generated from atomic densities. Full valence occupancy:   18   4

 Molecular orbital dump at record        2100.2

 Initial alpha occupancy:  13   3
 Initial beta  occupancy:  13   3
 Wave function symmetry:    1

 ITERATION    DDIFF          GRAD             ENERGY        2-EL.EN.            DIPOLE MOMENTS         DIIS
    1      0.000D+00      0.000D+00      -263.66045261    358.958559   -1.18420   -0.00012    0.00000    0
    2      0.000D+00      0.629D-02      -263.72569257    354.367576   -0.68695   -0.00010    0.00000    1
    3      0.101D-01      0.427D-02      -263.76898152    356.931386   -0.81088   -0.00009    0.00000    2
    4      0.415D-02      0.402D-03      -263.76947660    356.719344   -0.81421   -0.00010    0.00000    3
    5      0.485D-03      0.117D-03      -263.76953459    356.721564   -0.80880   -0.00009    0.00000    4
    6      0.181D-03      0.472D-04      -263.76954175    356.736014   -0.80948   -0.00009    0.00000    5
    7      0.603D-04      0.116D-04      -263.76954248    356.727668   -0.80903   -0.00009    0.00000    6
    8      0.197D-04      0.254D-05      -263.76954252    356.728967   -0.80904   -0.00009    0.00000    7
    9      0.541D-05      0.852D-06      -263.76954253    356.728775   -0.80901   -0.00009    0.00000    0

 Final occupancy:  13   3

 !RHF STATE 1.1 Energy               -263.769542526737
 Nuclear energy                        81.67946562
 One-electron energy                 -523.81339588
 Two-electron energy                  178.36438773
 Virial quotient                       -1.00182905
 !RHF STATE 1.1 Dipole moment          -0.80900601    -0.00009287     0.00000000
 Dipole moment /Debye                  -2.05615348    -0.00023603     0.00000000

 Orbital energies:

         1.1          2.1          3.1          4.1          5.1          6.1          7.1          8.1          9.1         10.1
    -20.650224   -20.650178   -20.567862   -11.459008    -1.527886    -1.474789    -1.353110    -0.798130    -0.740384    -0.718645

        11.1         12.1         13.1         14.1         15.1
     -0.711910    -0.584351    -0.541549     0.028356     0.047170

         1.2          2.2          3.2          4.2          5.2
     -0.711957    -0.541591    -0.510733     0.075768     0.157798


 **********************************************************************************************************************************
 DATASETS  * FILE   NREC   LENGTH (MB)   RECORD NAMES
              1      18        3.76       500      610      700      900      950      970     1000      129      960     1100   
                                          VAR    BASINP    GEOM    SYMINP    ZMAT    AOBASIS   BASIS     P2S    ABASIS      S 
                                         1400     1410     1200     1210     1080     1600     1650     1700   
                                           T        V       H0       H01     AOSYM     SMH    MOLCAS    OPER   

              2       3        0.96       700     1000     2100   
                                         GEOM     BASIS     RHF  

 PROGRAMS   *        TOTAL        HF       INT
 CPU TIMES  *         8.80      3.45      5.23
 REAL TIME  *         9.67 SEC
 DISK USED  *         1.09 GB      
 SF USED    *         0.12 MB      
 GA USED    *         0.00 MB       (max)       0.00 MB       (current)
 **********************************************************************************************************************************


1PROGRAM * CCSD (Closed-shell coupled cluster)     Authors: C. Hampel, H.-J. Werner, 1991, M. Deegan, P.J. Knowles, 1992

                                  CCSD-F12 implementation by  H.-J. Werner, 2007

                   Density fitting integral evaluation by F.R. Manby, 2003,2007, G. Knizia, 2010

 Basis set CC-PVTZ/JKFIT generated.      Number of basis functions:   376 
 Basis set AUG-CC-PVTZ/MP2FIT generated. Number of basis functions:   516 

 Convergence thresholds:  THRVAR = 1.00D-08  THRDEN = 1.00D-06

 CCSD(T)     terms to be evaluated (factor= 1.000)


 Number of core orbitals:           4 (   4   0 )
 Number of closed-shell orbitals:  12 (   9   3 )
 Number of external orbitals:     214 ( 139  75 )

 Molecular orbitals read from record     2100.2  Type=RHF/CANONICAL (state 1.1)

 MP2-F12 correlation treatment (H.-J. Werner, 2006)
 --------------------------------------------------

 Using MP2-F12 with ansatz 3C(FIX)

 Using projected zeroth-order Hamiltonian (+Z)

 FOCKRIB=T FOCKRIC=T FOCKRIP=T CABSP=T CABSA=T CABSK=T CABSF=T GBC=F EBC=F DMAT=T NOFIK=T NOPAO=1 SOLVE=-1  USEPAO=0
 EXCH_A= T EXCH_B= F EXCH_C= F EXCH_P= F
 
 Geminal basis:    OPTFULL  GEM_TYPE=SLATER  BETA=1.0  NGEM=6

 Optimizing Gaussian exponents for each gem_beta

 Geminal optimization for beta= 1.0000
 Weight function:   m=0, omega= 1.4646

 Augmented Hessian optimization of geminal fit. Trust ratio= 0.40000
 Convergence reached after   2 iterations. Final gradient= 8.24D-16, Step= 4.32D-06, Delta= 1.28D-09
 
 Alpha:                 0.19532     0.81920     2.85917     9.50073    35.69989   197.79328
 Coeff:                 0.27070     0.30552     0.18297     0.10986     0.06810     0.04224
 

 Symmetry turned off. Reference energy:       -263.769542526737

 All pairs explicitly correlated. Number of r12-pairs:           78
 
 AO(A)-basis ORBITAL           loaded. Number of functions:     230
 RI(R)-basis CC-PVTZ/JKFIT     loaded. Number of functions:     376
 DF-basis CC-PVTZ/JKFIT        loaded. Number of functions:     376

 Screening thresholds:   THRAO=  1.00D-10  THRMO=  1.00D-09  THRPROD=  1.00D-09
                         THRSW=  1.00D-05  THROV=  1.00D-12  THRF12=   1.00D-08

 CPU time for Fock operators                      0.97 sec
 
 Construction of ABS:
 Smallest eigenvalue of S          2.57E-04  (threshold= 1.00E-08)
 Ratio eigmin/eigmax               1.83E-06  (threshold= 1.00E-09)
 Smallest eigenvalue of S kept     2.57E-04  (threshold= 2.57E-04, 0 functions deleted, 376 kept)
 
 Construction of CABS:
 Smallest eigenvalue of S          2.30E-08  (threshold= 1.00E-08)
 Ratio eigmin/eigmax               2.30E-08  (threshold= 1.00E-09)
 Smallest eigenvalue of S kept     2.30E-08  (threshold= 2.30E-08, 0 functions deleted, 376 kept)
 
 CPU time for CABS singles                        0.18 sec

 CABS-singles contribution of  -0.01592394 patched into reference energy.
 New reference energy        -263.78546646
 
 AO(A)-basis ORBITAL           loaded. Number of functions:     230
 RI(R)-basis CC-PVTZ/JKFIT     loaded. Number of functions:     376
 DF-basis AUG-CC-PVTZ/MP2FIT   loaded. Number of functions:     516

 Screening thresholds:   THRAO=  1.00D-10  THRMO=  1.00D-09  THRPROD=  1.00D-09
                         THRSW=  1.00D-05  THROV=  1.00D-12  THRF12=   1.00D-08

 CPU time for 3-index integral evaluation         2.08 sec
 CPU time for first  half transformation          0.17 sec (13952.1 MFLOP/sec)
 CPU time for second half transformation          0.03 sec ( 3112.4 MFLOP/sec)
 CPU time for sorting                             0.14 sec
 CPU time for fitting                             0.05 sec (27690.6 MFLOP/sec)
 CPU time for tilde quantities                    0.05 sec (36977.6 MFLOP/sec)
 CPU time for assembly                            0.92 sec (25041.2 MFLOP/sec)
 CPU time for tranop_f12                          0.98 sec (29812.2 MFLOP/sec)
 CPU time for f12 integrals (total)               6.72 sec
 F12-matrices built in  3 passes.
 F12-matrices built in  3 passes.
 F12-matrices built in  3 passes.
 F12-matrices built in  3 passes.
 FC-matrix built in  3 passes.
 CPU time for f12 matrices (total)                0.58 sec

 Diagonal F12 approximation with fixed coefficients:  TSING= 0.500,  TTRIP= 0.250 (scaled by -1/beta)

 DF-MP2-F12 energy corrections:
 ------------------------------
 Approx.                                    Singlet             Triplet             Total
 DF-MP2-F12/3*C(DX,FIX)                -0.097453352735     -0.016934246570     -0.114387599305
 DF-MP2-F12/3*C(FIX)                   -0.079869460824     -0.013396323752     -0.093265784575
 DF-MP2-F12/3C(FIX)                    -0.080230191053     -0.013419454643     -0.093649645696

 DF-MP2-F12 correlation energies:
 --------------------------------
 Approx.                                    Singlet             Triplet             Ecorr            Total Energy
 DF-MP2                                -0.537718047353     -0.343064066518     -0.880782113872   -264.666248576566
 DF-MP2-F12/3*C(DX,FIX)                -0.635171400088     -0.359998313088     -0.995169713176   -264.780636175870
 DF-MP2-F12/3*C(FIX)                   -0.617587508177     -0.356460390270     -0.974047898447   -264.759514361141
 DF-MP2-F12/3C(FIX)                    -0.617948238406     -0.356483521161     -0.974431759567   -264.759898222262

 SCS-DF-MP2 energies (F_SING= 1.20000  F_TRIP= 0.62222  F_PARALLEL= 0.33333):
 ----------------------------------------------------------------------------
 SCS-DF-MP2                            -0.858723742658   -264.644190205352
 SCS-DF-MP2-F12/3*C(DX,FIX)            -0.986204630472   -264.771671093166
 SCS-DF-MP2-F12/3*C(FIX)               -0.962902585980   -264.748369048675
 SCS-DF-MP2-F12/3C(FIX)                -0.963349854810   -264.748816317504

 Symmetry restored.
 Symmetry transformation completed.

 Number of N-1 electron functions:              12
 Number of N-2 electron functions:              78
 Number of singly external CSFs:              1476
 Number of doubly external CSFs:           1686804
 Total number of CSFs:                     1688281

 Pair and operator lists are different

 Length of J-op  integral file:             466.42 MB
 Length of K-op  integral file:             526.62 MB
 Length of 3-ext integral record:             0.00 MB

 Memory could be reduced to 76.61 Mwords without degradation in triples

 Integral transformation finished. Total CPU:   5.86 sec, npass=  1  Memory used:  24.61 MW

 Reference energy:                   -263.78546646

 Adding F12 terms to K(Cij), methodcc=6,  factor=1.0

 ITER.      SQ.NORM     CORR.ENERGY   TOTAL ENERGY   ENERGY CHANGE        DEN1      VAR(S)    VAR(P)  DIIS     TIME
   1      1.20214094    -0.86273693  -264.64820340     0.01806167     0.04669055  0.72D-02  0.56D-02  1  1    17.54
   2      1.21645201    -0.85851081  -264.64397727     0.00422612    -0.02015055  0.86D-04  0.59D-03  2  2    20.36
   3      1.22181193    -0.85860705  -264.64407351    -0.00009624    -0.00236384  0.13D-03  0.32D-04  3  3    23.36
   4      1.22461345    -0.85847923  -264.64394569     0.00012782    -0.00141118  0.76D-05  0.41D-05  4  4    27.04
   5      1.22564334    -0.85844154  -264.64390800     0.00003769    -0.00036634  0.56D-06  0.29D-06  5  5    30.45
   6      1.22580551    -0.85841467  -264.64388114     0.00002686    -0.00000805  0.40D-07  0.24D-07  6  6    33.29
   7      1.22583487    -0.85841225  -264.64387871     0.00000242    -0.00000622  0.25D-08  0.40D-08  6  4    36.12
   8      1.22583516    -0.85841176  -264.64387823     0.00000049     0.00000195  0.39D-09  0.27D-09  6  1    38.96
   9      1.22583578    -0.85841183  -264.64387829    -0.00000007     0.00000056  0.26D-10  0.21D-10  6  2    41.85

 Norm of t1 vector:      0.10595490      S-energy:    -0.00000002      T1 diagnostic:  0.01529327
                                                                       D1 diagnostic:  0.04494929

 Adding energy correction from Wij-K(Fij), methodcc=6  factor=1.0
 
  CCSD correlation energy              -0.858411829287
  MP2-F12 correction (uncoupled)       -0.092492802180
  C*T doubles correction               -0.001475585450
  f12b correction                       0.015407213715


 Total CPU time for triples:     77.10 sec


 RESULTS
 =======

  Reference energy                   -263.769542526737
  F12 singles correction               -0.015923935957

 F12 singles corrections added to reference energy

  New reference energy               -263.785466462694

  F12a singlet correction              -0.080430189802
  F12a triplet correction              -0.013538197828
  F12a total correction                -0.093968387630

 F12a corrections for ansatz F12/3C(FIX) added to CCSD energy
 
  CCSD-F12a singlet pair energy        -0.641885291579
  CCSD-F12a triplet pair energy        -0.310494900725
  CCSD-F12a correlation energy         -0.952380216917

  Triples (T) contribution             -0.037636975060
  Total correlation energy             -0.990017191977

  CCSD-F12a total energy             -264.737846679611
  CCSD[T]-F12a energy                -264.778026926736
  CCSD-T-F12a energy                 -264.774546240903
 !CCSD(T)-F12a total energy          -264.775483654671

 F12b corrections for ansatz F12/3C(FIX) added to CCSD(T)-F12a energy

  CCSD-F12b singlet pair energy        -0.627701438081
  CCSD-F12b triplet pair energy        -0.309271540507
  CCSD-F12b correlation energy         -0.936973003202

  Triples (T) contribution             -0.037636975060
  Total correlation energy             -0.974609978262

  CCSD-F12b total energy             -264.722439465896
  CCSD[T]-F12b energy                -264.762619713021
  CCSD-T-F12b energy                 -264.759139027188
 !CCSD(T)-F12b total energy          -264.760076440956

 Timing summary (sec):

 STEP                 CPU(USER)    SYS     CPU(TOT)    WALL
 Transformation          5.89      0.63      6.52      6.53
 CCSD iterations        26.99      1.73     28.72     29.20
 Triples                77.10      1.70     78.80     78.77
 MP2-F12                 8.98      1.36     10.34     10.36
 F12b energy             1.74      0.03      1.77      1.77

 Program statistics:

 Available memory in ccsd:                99998934
 Min. memory needed in ccsd:               4458306
 Max. memory used in ccsd:                 5958390
 Max. memory used in cckext:               6352469 (10 integral passes)



 **********************************************************************************************************************************
 DATASETS  * FILE   NREC   LENGTH (MB)   RECORD NAMES
              1      20      269.66       500      610      700      900      950      970     1000      129      960     1100   
                                          VAR    BASINP    GEOM    SYMINP    ZMAT    AOBASIS   BASIS     P2S    ABASIS      S 
                                         1400     1410     1200     1210     1080     1600     1650     1700      960(1)  1380   
                                           T        V       H0       H01     AOSYM     SMH    MOLCAS    OPER    ABASIS    JKOP   

              2       5        1.55       700     1000     2100     7360     7350   
                                         GEOM     BASIS     RHF    F12ABS    EF12   

 PROGRAMS   *        TOTAL   CCSD(T)        HF       INT
 CPU TIMES  *       129.60    120.79      3.45      5.23
 REAL TIME  *       136.65 SEC
 DISK USED  *         1.53 GB      
 SF USED    *         1.53 GB      
 GA USED    *         2.40 MB       (max)       0.00 MB       (current)
 **********************************************************************************************************************************

     CCSD(T)-F12        HF-SCF  
   -264.76007644   -263.76954253
 **********************************************************************************************************************************
 Variable memory released
