
 Primary working directories    : /scratch/kee
 Secondary working directories  : /scratch/kee
 Wavefunction directory         : /home/kee/wfu/
 Main file repository           : /scratch/kee/

 ARCHNAME  : Linux/x86_64
 FC        : /opt/intel/composer_xe_2015.0.090/bin/intel64/ifort
 FCVERSION : 15.0.0
 BLASLIB   : -L/opt/intel/mkl/lib/intel64 -lmkl_intel_ilp64 -lmkl_sequential -lmkl_core
 id        : emory

 Nodes     nprocs
 node19       3
 Number of processes for MPI-2 version of Molpro:   nprocs(total)=    4   nprocs(compute)=    3   nprocs(helper)=    1
 ga_uses_ma=false, calling ma_init with nominal heap.
 GA-space will be limited to   8.0 MW (determined by -G option)

 Using customized tuning parameters: mindgm=7; mindgv=32; mindgc=1; mindgr=1; noblas=0; mincuda=1000; minvec=7
 default implementation of scratch files=sf  

 ***,co2h2o
 memory,100,m
 basis avtz
 geomtype = xyz
 geometry = {
 6
       0.00000777
 O    10.97257393   -1.10347931    0.00000000
 O    11.76744404    1.08065151   -0.00000000
 O     9.14356282    0.00000000    0.00000000
 H     8.39556774    0.58340495    0.10287003
 H     9.89598802    0.58686026    0.10347930
 C    11.34356282    0.00000000    0.00000000
 }
 hf
 ccsd(t)-f12
 ---

 Variables initialized (665), CPU time= 0.01 sec
 Commands  initialized (462), CPU time= 0.00 sec, 486 directives.
 Default parameters read. Elapsed time= 0.03 sec

 Checking input...
 Passed
1


                                         ***  PROGRAM SYSTEM MOLPRO  ***
                         Copyright, University College Cardiff Consultants Limited, 2008

                                    Version 2010.1 linked 9 Dec 2014 15:06:28 


 **********************************************************************************************************************************
 LABEL *   co2h2o                                                                        
 Linux-2.6.32-504.el6.x86_64/node19(x86_64) 64 bit mpp version                           DATE: 18-Jan-17          TIME: 21:21:20  
 **********************************************************************************************************************************

 Patch level:      19
 **********************************************************************************************************************************

 Variable memory set to  100000000 words,  buffer space   230000 words

 SETTING BASIS          =    AVTZ
 SETTING GEOMTYPE       =    XYZ

Geometry recognized as XYZ



 Recomputing integrals since basis changed


 Using spherical harmonics

 Library entry O      S aug-cc-pVTZ          selected for orbital group  1
 Library entry O      P aug-cc-pVTZ          selected for orbital group  1
 Library entry O      D aug-cc-pVTZ          selected for orbital group  1
 Library entry O      F aug-cc-pVTZ          selected for orbital group  1
 Library entry H      S aug-cc-pVTZ          selected for orbital group  2
 Library entry H      P aug-cc-pVTZ          selected for orbital group  2
 Library entry H      D aug-cc-pVTZ          selected for orbital group  2
 Library entry C      S aug-cc-pVTZ          selected for orbital group  3
 Library entry C      P aug-cc-pVTZ          selected for orbital group  3
 Library entry C      D aug-cc-pVTZ          selected for orbital group  3
 Library entry C      F aug-cc-pVTZ          selected for orbital group  3

1PROGRAM * SEWARD (Integral evaluation for generally contracted gaussian basis sets)     Author: Roland Lindh, 1990

 Geometry written to block  1 of record 700


 Point group  C1  



 ATOMIC COORDINATES

 NR  ATOM    CHARGE       X              Y              Z

   1  O       8.00   20.735159684   -2.085273688    0.000000000
   2  O       8.00   22.237246502    2.042135397    0.000000000
   3  O       8.00   17.278829595    0.000000000    0.000000000
   4  H       1.00   15.865323746    1.102475579    0.194396184
   5  H       1.00   18.700707158    1.109005169    0.195547537
   6  C       6.00   21.436227084    0.000000000    0.000000000

 Bond lengths in Bohr (Angstrom)

 1-6  2.199968602  2-6  2.193615529  3-4  1.803119814  3-5  1.813799081
     (1.164173245)     (1.160811343)     (0.954169911)     (0.959821135)

 Bond angles

  1-6-2  177.16520951   4-3-5  103.24222917

 NUCLEAR CHARGE:                   32
 NUMBER OF PRIMITIVE AOS:         322
 NUMBER OF SYMMETRY AOS:          282
 NUMBER OF CONTRACTIONS:          230   ( 230A   )
 NUMBER OF CORE ORBITALS:           4   (   4A   )
 NUMBER OF VALENCE ORBITALS:       18   (  18A   )


 NUCLEAR REPULSION ENERGY  116.79966109


 Eigenvalues of metric

         1 0.900E-04 0.149E-03 0.182E-03 0.225E-03 0.326E-03 0.379E-03 0.663E-03 0.744E-03


 Contracted 2-electron integrals neglected if value below      1.0D-11
 AO integral compression algorithm  1   Integral accuracy      1.0D-11

     1278.738 MB (compressed) written to integral file ( 38.9%)

     Node minimum: 416.285 MB, node maximum: 442.237 MB


 NUMBER OF SORTED TWO-ELECTRON INTEGRALS:  117629820.     BUFFER LENGTH:  32768
 NUMBER OF SEGMENTS:   8  SEGMENT LENGTH:   15997437      RECORD LENGTH: 524288

 Memory used in sort:      16.55 MW

 SORT1 READ   410697961. AND WROTE    90313625. INTEGRALS IN    262 RECORDS. CPU TIME:     5.06 SEC, REAL TIME:     6.03 SEC
 SORT2 READ   271210711. AND WROTE   352862895. INTEGRALS IN   5061 RECORDS. CPU TIME:     1.56 SEC, REAL TIME:     2.29 SEC

 Node minimum:   117612110.  Node maximum:   117629820. integrals

 OPERATOR DM      FOR CENTER  0  COORDINATES:    0.000000    0.000000    0.000000


 **********************************************************************************************************************************
 DATASETS  * FILE   NREC   LENGTH (MB)   RECORD NAMES
              1      18        4.62       500      610      700      900      950      970     1000      129      960     1100   
                                          VAR    BASINP    GEOM    SYMINP    ZMAT    AOBASIS   BASIS     P2S    ABASIS      S 
                                         1400     1410     1200     1210     1080     1600     1650     1700   
                                           T        V       H0       H01     AOSYM     SMH    MOLCAS    OPER   

 PROGRAMS   *        TOTAL       INT
 CPU TIMES  *        11.78     11.71
 REAL TIME  *        13.77 SEC
 DISK USED  *         4.48 GB      
 GA USED    *         0.00 MB       (max)       0.00 MB       (current)
 **********************************************************************************************************************************

1PROGRAM * RHF-SCF (CLOSED SHELL)       Authors: W. Meyer, H.-J. Werner


 NUMBER OF ELECTRONS:      16+   16-    SPACE SYMMETRY=1    SPIN SYMMETRY=Singlet 
 CONVERGENCE THRESHOLDS:    1.00E-05 (Density)    1.00E-07 (Energy)
 MAX. NUMBER OF ITERATIONS:       60
 INTERPOLATION TYPE:            DIIS
 INTERPOLATION STEPS:              2 (START)      1 (STEP)
 LEVEL SHIFTS:                  0.00 (CLOSED)  0.00 (OPEN) 



 Orbital guess generated from atomic densities. Full valence occupancy:   22

 Molecular orbital dump at record        2100.2

 ITERATION    DDIFF          GRAD             ENERGY        2-EL.EN.            DIPOLE MOMENTS         DIIS
    1      0.000D+00      0.000D+00      -263.57829998    428.000052   -0.02083    1.19506    0.18768    0
    2      0.000D+00      0.489D-02      -263.64591691    424.309945   -0.26658    0.27980    0.08998    1
    3      0.798D-02      0.346D-02      -263.69793145    426.531335   -0.13266    0.68588    0.11821    2
    4      0.334D-02      0.395D-03      -263.69866830    426.336239   -0.16036    0.61821    0.12030    3
    5      0.487D-03      0.172D-03      -263.69882415    426.318505   -0.15046    0.64945    0.11954    4
    6      0.207D-03      0.535D-04      -263.69884185    426.337042   -0.15577    0.63903    0.11935    5
    7      0.626D-04      0.144D-04      -263.69884351    426.335278   -0.15585    0.64040    0.11941    6
    8      0.224D-04      0.502D-05      -263.69884373    426.332405   -0.15627    0.63996    0.11937    7
    9      0.717D-05      0.151D-05      -263.69884376    426.333703   -0.15638    0.64004    0.11937    8
   10      0.310D-05      0.577D-06      -263.69884377    426.333357   -0.15640    0.64002    0.11937    0

 Final occupancy:  16

 !RHF STATE 1.1 Energy               -263.698843765028
 Nuclear energy                       116.79966109
 One-electron energy                 -593.66518312
 Two-electron energy                  213.16667826
 Virial quotient                       -1.00025769
 !RHF STATE 1.1 Dipole moment          -0.15639951     0.64001740     0.11936921
 Dipole moment /Debye                  -0.39750187     1.62665543     0.30338640

 Orbital energies:

         1.1          2.1          3.1          4.1          5.1          6.1          7.1          8.1          9.1         10.1
    -20.660218   -20.636757   -20.577374   -11.460994    -1.541093    -1.479160    -1.375322    -0.824614    -0.788825    -0.740147

        11.1         12.1         13.1         14.1         15.1         16.1         17.1         18.1
     -0.718646    -0.651234    -0.622887    -0.548014    -0.524973    -0.515654     0.027491     0.046326


 **********************************************************************************************************************************
 DATASETS  * FILE   NREC   LENGTH (MB)   RECORD NAMES
              1      18        4.62       500      610      700      900      950      970     1000      129      960     1100   
                                          VAR    BASINP    GEOM    SYMINP    ZMAT    AOBASIS   BASIS     P2S    ABASIS      S 
                                         1400     1410     1200     1210     1080     1600     1650     1700   
                                           T        V       H0       H01     AOSYM     SMH    MOLCAS    OPER   

              2       3        1.44       700     1000     2100   
                                         GEOM     BASIS     RHF  

 PROGRAMS   *        TOTAL        HF       INT
 CPU TIMES  *        24.34     12.56     11.71
 REAL TIME  *        27.01 SEC
 DISK USED  *         4.51 GB      
 SF USED    *         0.21 MB      
 GA USED    *         0.00 MB       (max)       0.00 MB       (current)
 **********************************************************************************************************************************


1PROGRAM * CCSD (Closed-shell coupled cluster)     Authors: C. Hampel, H.-J. Werner, 1991, M. Deegan, P.J. Knowles, 1992

                                  CCSD-F12 implementation by  H.-J. Werner, 2007

                   Density fitting integral evaluation by F.R. Manby, 2003,2007, G. Knizia, 2010

 Basis set CC-PVTZ/JKFIT generated.      Number of basis functions:   376 
 Basis set AUG-CC-PVTZ/MP2FIT generated. Number of basis functions:   516 

 Convergence thresholds:  THRVAR = 1.00D-08  THRDEN = 1.00D-06

 CCSD(T)     terms to be evaluated (factor= 1.000)


 Number of core orbitals:           4 (   4 )
 Number of closed-shell orbitals:  12 (  12 )
 Number of external orbitals:     214 ( 214 )

 Molecular orbitals read from record     2100.2  Type=RHF/CANONICAL (state 1.1)

 MP2-F12 correlation treatment (H.-J. Werner, 2006)
 --------------------------------------------------

 Using MP2-F12 with ansatz 3C(FIX)

 Using projected zeroth-order Hamiltonian (+Z)

 FOCKRIB=T FOCKRIC=T FOCKRIP=T CABSP=T CABSA=T CABSK=T CABSF=T GBC=F EBC=F DMAT=T NOFIK=T NOPAO=1 SOLVE=-1  USEPAO=0
 EXCH_A= T EXCH_B= F EXCH_C= F EXCH_P= F
 
 Geminal basis:    OPTFULL  GEM_TYPE=SLATER  BETA=1.0  NGEM=6

 Optimizing Gaussian exponents for each gem_beta

 Geminal optimization for beta= 1.0000
 Weight function:   m=0, omega= 1.4646

 Augmented Hessian optimization of geminal fit. Trust ratio= 0.40000
 Convergence reached after   2 iterations. Final gradient= 8.24D-16, Step= 4.32D-06, Delta= 1.28D-09
 
 Alpha:                 0.19532     0.81920     2.85917     9.50073    35.69989   197.79328
 Coeff:                 0.27070     0.30552     0.18297     0.10986     0.06810     0.04224
 

 All pairs explicitly correlated. Number of r12-pairs:           78
 
 AO(A)-basis ORBITAL           loaded. Number of functions:     230
 RI(R)-basis CC-PVTZ/JKFIT     loaded. Number of functions:     376
 DF-basis CC-PVTZ/JKFIT        loaded. Number of functions:     376

 Screening thresholds:   THRAO=  1.00D-10  THRMO=  1.00D-09  THRPROD=  1.00D-09
                         THRSW=  1.00D-05  THROV=  1.00D-12  THRF12=   1.00D-08

 CPU time for Fock operators                      0.99 sec
 
 Construction of ABS:
 Smallest eigenvalue of S          2.01E-04  (threshold= 1.00E-08)
 Ratio eigmin/eigmax               1.43E-06  (threshold= 1.00E-09)
 Smallest eigenvalue of S kept     2.01E-04  (threshold= 2.01E-04, 0 functions deleted, 376 kept)
 
 Construction of CABS:
 Smallest eigenvalue of S          2.10E-08  (threshold= 1.00E-08)
 Ratio eigmin/eigmax               2.10E-08  (threshold= 1.00E-09)
 Smallest eigenvalue of S kept     2.10E-08  (threshold= 2.10E-08, 0 functions deleted, 376 kept)
 
 CPU time for CABS singles                        0.16 sec

 CABS-singles contribution of  -0.01594342 patched into reference energy.
 New reference energy        -263.71478719
 
 AO(A)-basis ORBITAL           loaded. Number of functions:     230
 RI(R)-basis CC-PVTZ/JKFIT     loaded. Number of functions:     376
 DF-basis AUG-CC-PVTZ/MP2FIT   loaded. Number of functions:     516

 Screening thresholds:   THRAO=  1.00D-10  THRMO=  1.00D-09  THRPROD=  1.00D-09
                         THRSW=  1.00D-05  THROV=  1.00D-12  THRF12=   1.00D-08

 CPU time for 3-index integral evaluation         3.03 sec
 CPU time for first  half transformation          0.31 sec ( 9526.3 MFLOP/sec)
 CPU time for second half transformation          0.02 sec ( 5352.2 MFLOP/sec)
 CPU time for sorting                             0.16 sec
 CPU time for fitting                             0.05 sec (27861.0 MFLOP/sec)
 CPU time for tilde quantities                    0.05 sec (36977.6 MFLOP/sec)
 CPU time for assembly                            0.77 sec (30023.5 MFLOP/sec)
 CPU time for tranop_f12                          0.84 sec (35026.8 MFLOP/sec)
 CPU time for f12 integrals (total)               7.22 sec
 F12-matrices built in  3 passes.
 F12-matrices built in  3 passes.
 F12-matrices built in  3 passes.
 F12-matrices built in  3 passes.
 FC-matrix built in  3 passes.
 CPU time for f12 matrices (total)                0.51 sec

 Diagonal F12 approximation with fixed coefficients:  TSING= 0.500,  TTRIP= 0.250 (scaled by -1/beta)

 DF-MP2-F12 energy corrections:
 ------------------------------
 Approx.                                    Singlet             Triplet             Total
 DF-MP2-F12/3*C(DX,FIX)                -0.097295118028     -0.017226499449     -0.114521617477
 DF-MP2-F12/3*C(FIX)                   -0.079523344363     -0.013691470429     -0.093214814792
 DF-MP2-F12/3C(FIX)                    -0.079926210581     -0.013770076887     -0.093696287468

 DF-MP2-F12 correlation energies:
 --------------------------------
 Approx.                                    Singlet             Triplet             Ecorr            Total Energy
 DF-MP2                                -0.543845951738     -0.354577311709     -0.898423263447   -264.613210450205
 DF-MP2-F12/3*C(DX,FIX)                -0.641141069767     -0.371803811158     -1.012944880925   -264.727732067683
 DF-MP2-F12/3*C(FIX)                   -0.623369296102     -0.368268782138     -0.991638078240   -264.706425264998
 DF-MP2-F12/3C(FIX)                    -0.623772162319     -0.368347388596     -0.992119550915   -264.706906737673

 SCS-DF-MP2 energies (F_SING= 1.20000  F_TRIP= 0.62222  F_PARALLEL= 0.33333):
 ----------------------------------------------------------------------------
 SCS-DF-MP2                            -0.873241024927   -264.588028211685
 SCS-DF-MP2-F12/3*C(DX,FIX)            -1.000713877329   -264.715501064087
 SCS-DF-MP2-F12/3*C(FIX)               -0.977188175319   -264.691975362077
 SCS-DF-MP2-F12/3C(FIX)                -0.977720525465   -264.692507712223
 Symmetry transformation completed.

 Number of N-1 electron functions:              12
 Number of N-2 electron functions:              78
 Number of singly external CSFs:              2568
 Number of doubly external CSFs:           3298596
 Total number of CSFs:                     3301165

 Pair and operator lists are different

 Length of J-op  integral file:             474.22 MB
 Length of K-op  integral file:             572.29 MB
 Length of 3-ext integral record:             0.00 MB

 For full I/O caching in triples, increase memory by 50.81 Mwords to 151.09 Mwords.

 Integral transformation finished. Total CPU:  14.84 sec, npass=  1  Memory used:  87.46 MW

 Reference energy:                   -263.71478719

 Adding F12 terms to K(Cij), methodcc=6,  factor=1.0

 ITER.      SQ.NORM     CORR.ENERGY   TOTAL ENERGY   ENERGY CHANGE        DEN1      VAR(S)    VAR(P)  DIIS     TIME
   1      1.20484061    -0.87750240  -264.59228959     0.02092126     0.05141782  0.80D-02  0.61D-02  1  1    33.88
   2      1.21994903    -0.87274135  -264.58752854     0.00476105    -0.02144950  0.99D-04  0.63D-03  2  2    44.19
   3      1.22554065    -0.87284129  -264.58762847    -0.00009994    -0.00222393  0.16D-03  0.34D-04  3  3    54.39
   4      1.22862649    -0.87267603  -264.58746322     0.00016526    -0.00148168  0.11D-04  0.48D-05  4  4    64.55
   5      1.22988601    -0.87263401  -264.58742120     0.00004202    -0.00042243  0.13D-05  0.39D-06  5  5    74.42
   6      1.23010439    -0.87260258  -264.58738976     0.00003143    -0.00000968  0.14D-06  0.60D-07  6  6    84.61
   7      1.23015972    -0.87259792  -264.58738511     0.00000465    -0.00000742  0.36D-07  0.93D-08  6  2    94.82
   8      1.23016737    -0.87259707  -264.58738425     0.00000086     0.00000122  0.53D-08  0.15D-08  6  1   105.00
   9      1.23016809    -0.87259750  -264.58738468    -0.00000043     0.00000223  0.11D-08  0.26D-09  6  4   115.21

 Norm of t1 vector:      0.11259007      S-energy:    -0.00000004      T1 diagnostic:  0.01625098
                                                                       D1 diagnostic:  0.05085573

 Adding energy correction from Wij-K(Fij), methodcc=6  factor=1.0
 
  CCSD correlation energy              -0.872597495528
  MP2-F12 correction (uncoupled)       -0.092411299777
  C*T doubles correction               -0.001553612480
  f12b correction                       0.015445796616


 Total CPU time for triples:    238.47 sec


 RESULTS
 =======

  Reference energy                   -263.698843765028
  F12 singles correction               -0.015943421730

 F12 singles corrections added to reference energy

  New reference energy               -263.714787186758

  F12a singlet correction              -0.080114519936
  F12a triplet correction              -0.013850392321
  F12a total correction                -0.093964912257

 F12a corrections for ansatz F12/3C(FIX) added to CCSD energy
 
  CCSD-F12a singlet pair energy        -0.645846962659
  CCSD-F12a triplet pair energy        -0.320715408949
  CCSD-F12a correlation energy         -0.966562407785

  Triples (T) contribution             -0.040193582565
  Total correlation energy             -1.006755990350

  CCSD-F12a total energy             -264.681349594542
  CCSD[T]-F12a energy                -264.724355627875
  CCSD-T-F12a energy                 -264.720551075754
 !CCSD(T)-F12a total energy          -264.721543177108

 F12b corrections for ansatz F12/3C(FIX) added to CCSD(T)-F12a energy

  CCSD-F12b singlet pair energy        -0.631662608365
  CCSD-F12b triplet pair energy        -0.319453966629
  CCSD-F12b correlation energy         -0.951116611169

  Triples (T) contribution             -0.040193582565
  Total correlation energy             -0.991310193734

  CCSD-F12b total energy             -264.665903797927
  CCSD[T]-F12b energy                -264.708909831259
  CCSD-T-F12b energy                 -264.705105279139
 !CCSD(T)-F12b total energy          -264.706097380492

 Timing summary (sec):

 STEP                 CPU(USER)    SYS     CPU(TOT)    WALL
 Transformation         14.94      1.13     16.07     16.07
 CCSD iterations        90.87      3.31     94.18     94.41
 Triples               238.47      3.12    241.59    242.34
 MP2-F12                 9.43      1.14     10.57     10.57
 F12b energy             7.05      0.10      7.15      7.15

 Program statistics:

 Available memory in ccsd:                99998934
 Min. memory needed in ccsd:               8644845
 Max. memory used in ccsd:                11598633
 Max. memory used in cckext:               8768967 (10 integral passes)



 **********************************************************************************************************************************
 DATASETS  * FILE   NREC   LENGTH (MB)   RECORD NAMES
              1      20      527.84       500      610      700      900      950      970     1000      129      960     1100   
                                          VAR    BASINP    GEOM    SYMINP    ZMAT    AOBASIS   BASIS     P2S    ABASIS      S 
                                         1400     1410     1200     1210     1080     1600     1650     1700      960(1)  1380   
                                           T        V       H0       H01     AOSYM     SMH    MOLCAS    OPER    ABASIS    JKOP   

              2       5        2.50       700     1000     2100     7360     7350   
                                         GEOM     BASIS     RHF    F12ABS    EF12   

 PROGRAMS   *        TOTAL   CCSD(T)        HF       INT
 CPU TIMES  *       385.12    360.77     12.56     11.71
 REAL TIME  *       397.92 SEC
 DISK USED  *         5.38 GB      
 SF USED    *         1.91 GB      
 GA USED    *         2.40 MB       (max)       0.00 MB       (current)
 **********************************************************************************************************************************

     CCSD(T)-F12        HF-SCF  
   -264.70609738   -263.69884377
 **********************************************************************************************************************************
 Variable memory released
