
 Primary working directories    : /scratch/kee
 Secondary working directories  : /scratch/kee
 Wavefunction directory         : /home/kee/wfu/
 Main file repository           : /scratch/kee/

 ARCHNAME  : Linux/x86_64
 FC        : /opt/intel/composer_xe_2015.0.090/bin/intel64/ifort
 FCVERSION : 15.0.0
 BLASLIB   : -L/opt/intel/mkl/lib/intel64 -lmkl_intel_ilp64 -lmkl_sequential -lmkl_core
 id        : emory

 Nodes     nprocs
 node19       3
 Number of processes for MPI-2 version of Molpro:   nprocs(total)=    4   nprocs(compute)=    3   nprocs(helper)=    1
 ga_uses_ma=false, calling ma_init with nominal heap.
 GA-space will be limited to   8.0 MW (determined by -G option)

 Using customized tuning parameters: mindgm=7; mindgv=32; mindgc=1; mindgr=1; noblas=0; mincuda=1000; minvec=7
 default implementation of scratch files=sf  

 ***,co2h2o
 memory,100,m
 basis avtz
 geomtype = xyz
 geometry = {
 6
       0.00000777
 O    10.97257393   -1.10347931    0.00000000
 O    11.76744404    1.08065151   -0.00000000
 O     8.99356282    0.00000000    0.00000000
 H     8.24556774    0.58340495    0.10287003
 H     9.74598802    0.58686026    0.10347930
 C    11.34356282    0.00000000    0.00000000
 }
 hf
 ccsd(t)-f12
 ---

 Variables initialized (665), CPU time= 0.00 sec
 Commands  initialized (462), CPU time= 0.01 sec, 486 directives.
 Default parameters read. Elapsed time= 0.03 sec

 Checking input...
 Passed
1


                                         ***  PROGRAM SYSTEM MOLPRO  ***
                         Copyright, University College Cardiff Consultants Limited, 2008

                                    Version 2010.1 linked 9 Dec 2014 15:06:28 


 **********************************************************************************************************************************
 LABEL *   co2h2o                                                                        
 Linux-2.6.32-504.el6.x86_64/node19(x86_64) 64 bit mpp version                           DATE: 18-Jan-17          TIME: 21:40:20  
 **********************************************************************************************************************************

 Patch level:      19
 **********************************************************************************************************************************

 Variable memory set to  100000000 words,  buffer space   230000 words

 SETTING BASIS          =    AVTZ
 SETTING GEOMTYPE       =    XYZ

Geometry recognized as XYZ



 Recomputing integrals since basis changed


 Using spherical harmonics

 Library entry O      S aug-cc-pVTZ          selected for orbital group  1
 Library entry O      P aug-cc-pVTZ          selected for orbital group  1
 Library entry O      D aug-cc-pVTZ          selected for orbital group  1
 Library entry O      F aug-cc-pVTZ          selected for orbital group  1
 Library entry H      S aug-cc-pVTZ          selected for orbital group  2
 Library entry H      P aug-cc-pVTZ          selected for orbital group  2
 Library entry H      D aug-cc-pVTZ          selected for orbital group  2
 Library entry C      S aug-cc-pVTZ          selected for orbital group  3
 Library entry C      P aug-cc-pVTZ          selected for orbital group  3
 Library entry C      D aug-cc-pVTZ          selected for orbital group  3
 Library entry C      F aug-cc-pVTZ          selected for orbital group  3

1PROGRAM * SEWARD (Integral evaluation for generally contracted gaussian basis sets)     Author: Roland Lindh, 1990

 Geometry written to block  1 of record 700


 Point group  C1  



 ATOMIC COORDINATES

 NR  ATOM    CHARGE       X              Y              Z

   1  O       8.00   20.735159684   -2.085273688    0.000000000
   2  O       8.00   22.237246502    2.042135397    0.000000000
   3  O       8.00   16.995370676    0.000000000    0.000000000
   4  H       1.00   15.581864827    1.102475579    0.194396184
   5  H       1.00   18.417248238    1.109005169    0.195547537
   6  C       6.00   21.436227084    0.000000000    0.000000000

 Bond lengths in Bohr (Angstrom)

 1-6  2.199968602  2-6  2.193615529  3-4  1.803119814  3-5  1.813799081
     (1.164173245)     (1.160811343)     (0.954169911)     (0.959821135)

 Bond angles

  1-6-2  177.16520951   4-3-5  103.24222917

 NUCLEAR CHARGE:                   32
 NUMBER OF PRIMITIVE AOS:         322
 NUMBER OF SYMMETRY AOS:          282
 NUMBER OF CONTRACTIONS:          230   ( 230A   )
 NUMBER OF CORE ORBITALS:           4   (   4A   )
 NUMBER OF VALENCE ORBITALS:       18   (  18A   )


 NUCLEAR REPULSION ENERGY  114.03788537


 Eigenvalues of metric

         1 0.124E-03 0.162E-03 0.207E-03 0.256E-03 0.328E-03 0.427E-03 0.746E-03 0.812E-03


 Contracted 2-electron integrals neglected if value below      1.0D-11
 AO integral compression algorithm  1   Integral accuracy      1.0D-11

     1255.932 MB (compressed) written to integral file ( 38.2%)

     Node minimum: 410.780 MB, node maximum: 432.275 MB


 NUMBER OF SORTED TWO-ELECTRON INTEGRALS:  117629820.     BUFFER LENGTH:  32768
 NUMBER OF SEGMENTS:   8  SEGMENT LENGTH:   15997437      RECORD LENGTH: 524288

 Memory used in sort:      16.55 MW

 SORT1 READ   410697961. AND WROTE    89580468. INTEGRALS IN    260 RECORDS. CPU TIME:     5.09 SEC, REAL TIME:     6.65 SEC
 SORT2 READ   269020857. AND WROTE   352862895. INTEGRALS IN   4947 RECORDS. CPU TIME:     2.02 SEC, REAL TIME:     2.66 SEC

 Node minimum:   117612110.  Node maximum:   117629820. integrals

 OPERATOR DM      FOR CENTER  0  COORDINATES:    0.000000    0.000000    0.000000


 **********************************************************************************************************************************
 DATASETS  * FILE   NREC   LENGTH (MB)   RECORD NAMES
              1      18        4.62       500      610      700      900      950      970     1000      129      960     1100   
                                          VAR    BASINP    GEOM    SYMINP    ZMAT    AOBASIS   BASIS     P2S    ABASIS      S 
                                         1400     1410     1200     1210     1080     1600     1650     1700   
                                           T        V       H0       H01     AOSYM     SMH    MOLCAS    OPER   

 PROGRAMS   *        TOTAL       INT
 CPU TIMES  *        12.25     12.18
 REAL TIME  *        14.70 SEC
 DISK USED  *         4.44 GB      
 GA USED    *         0.00 MB       (max)       0.00 MB       (current)
 **********************************************************************************************************************************

1PROGRAM * RHF-SCF (CLOSED SHELL)       Authors: W. Meyer, H.-J. Werner


 NUMBER OF ELECTRONS:      16+   16-    SPACE SYMMETRY=1    SPIN SYMMETRY=Singlet 
 CONVERGENCE THRESHOLDS:    1.00E-05 (Density)    1.00E-07 (Energy)
 MAX. NUMBER OF ITERATIONS:       60
 INTERPOLATION TYPE:            DIIS
 INTERPOLATION STEPS:              2 (START)      1 (STEP)
 LEVEL SHIFTS:                  0.00 (CLOSED)  0.00 (OPEN) 



 Orbital guess generated from atomic densities. Full valence occupancy:   22

 Molecular orbital dump at record        2100.2

 ITERATION    DDIFF          GRAD             ENERGY        2-EL.EN.            DIPOLE MOMENTS         DIIS
    1      0.000D+00      0.000D+00      -263.60460155    422.581886   -0.02006    1.17556    0.19059    0
    2      0.000D+00      0.486D-02      -263.67280053    418.795604   -0.21122    0.33201    0.09284    1
    3      0.786D-02      0.339D-02      -263.72290134    421.079991   -0.11046    0.68275    0.12037    2
    4      0.328D-02      0.369D-03      -263.72356513    420.872955   -0.13255    0.62898    0.12224    3
    5      0.452D-03      0.152D-03      -263.72368961    420.862014   -0.12385    0.65617    0.12142    4
    6      0.190D-03      0.545D-04      -263.72370696    420.879941   -0.12882    0.64564    0.12130    5
    7      0.615D-04      0.138D-04      -263.72370848    420.877579   -0.12876    0.64716    0.12135    6
    8      0.215D-04      0.477D-05      -263.72370867    420.875033   -0.12912    0.64667    0.12131    7
    9      0.658D-05      0.140D-05      -263.72370869    420.876216   -0.12921    0.64676    0.12131    8
   10      0.278D-05      0.514D-06      -263.72370869    420.875923   -0.12922    0.64674    0.12130    0

 Final occupancy:  16

 !RHF STATE 1.1 Energy               -263.723708693960
 Nuclear energy                       114.03788537
 One-electron energy                 -588.19955534
 Two-electron energy                  210.43796127
 Virial quotient                       -1.00079421
 !RHF STATE 1.1 Dipole moment          -0.12922066     0.64673526     0.12130491
 Dipole moment /Debye                  -0.32842463     1.64372941     0.30830613

 Orbital energies:

         1.1          2.1          3.1          4.1          5.1          6.1          7.1          8.1          9.1         10.1
    -20.660327   -20.642640   -20.577397   -11.461420    -1.537755    -1.478894    -1.372119    -0.811768    -0.782710    -0.741650

        11.1         12.1         13.1         14.1         15.1         16.1         17.1         18.1
     -0.717984    -0.665789    -0.613753    -0.546738    -0.530915    -0.519956     0.027694     0.046310


 **********************************************************************************************************************************
 DATASETS  * FILE   NREC   LENGTH (MB)   RECORD NAMES
              1      18        4.62       500      610      700      900      950      970     1000      129      960     1100   
                                          VAR    BASINP    GEOM    SYMINP    ZMAT    AOBASIS   BASIS     P2S    ABASIS      S 
                                         1400     1410     1200     1210     1080     1600     1650     1700   
                                           T        V       H0       H01     AOSYM     SMH    MOLCAS    OPER   

              2       3        1.44       700     1000     2100   
                                         GEOM     BASIS     RHF  

 PROGRAMS   *        TOTAL        HF       INT
 CPU TIMES  *        24.72     12.46     12.18
 REAL TIME  *        27.79 SEC
 DISK USED  *         4.48 GB      
 SF USED    *         0.21 MB      
 GA USED    *         0.00 MB       (max)       0.00 MB       (current)
 **********************************************************************************************************************************


1PROGRAM * CCSD (Closed-shell coupled cluster)     Authors: C. Hampel, H.-J. Werner, 1991, M. Deegan, P.J. Knowles, 1992

                                  CCSD-F12 implementation by  H.-J. Werner, 2007

                   Density fitting integral evaluation by F.R. Manby, 2003,2007, G. Knizia, 2010

 Basis set CC-PVTZ/JKFIT generated.      Number of basis functions:   376 
 Basis set AUG-CC-PVTZ/MP2FIT generated. Number of basis functions:   516 

 Convergence thresholds:  THRVAR = 1.00D-08  THRDEN = 1.00D-06

 CCSD(T)     terms to be evaluated (factor= 1.000)


 Number of core orbitals:           4 (   4 )
 Number of closed-shell orbitals:  12 (  12 )
 Number of external orbitals:     214 ( 214 )

 Molecular orbitals read from record     2100.2  Type=RHF/CANONICAL (state 1.1)

 MP2-F12 correlation treatment (H.-J. Werner, 2006)
 --------------------------------------------------

 Using MP2-F12 with ansatz 3C(FIX)

 Using projected zeroth-order Hamiltonian (+Z)

 FOCKRIB=T FOCKRIC=T FOCKRIP=T CABSP=T CABSA=T CABSK=T CABSF=T GBC=F EBC=F DMAT=T NOFIK=T NOPAO=1 SOLVE=-1  USEPAO=0
 EXCH_A= T EXCH_B= F EXCH_C= F EXCH_P= F
 
 Geminal basis:    OPTFULL  GEM_TYPE=SLATER  BETA=1.0  NGEM=6

 Optimizing Gaussian exponents for each gem_beta

 Geminal optimization for beta= 1.0000
 Weight function:   m=0, omega= 1.4646

 Augmented Hessian optimization of geminal fit. Trust ratio= 0.40000
 Convergence reached after   2 iterations. Final gradient= 8.24D-16, Step= 4.32D-06, Delta= 1.28D-09
 
 Alpha:                 0.19532     0.81920     2.85917     9.50073    35.69989   197.79328
 Coeff:                 0.27070     0.30552     0.18297     0.10986     0.06810     0.04224
 

 All pairs explicitly correlated. Number of r12-pairs:           78
 
 AO(A)-basis ORBITAL           loaded. Number of functions:     230
 RI(R)-basis CC-PVTZ/JKFIT     loaded. Number of functions:     376
 DF-basis CC-PVTZ/JKFIT        loaded. Number of functions:     376

 Screening thresholds:   THRAO=  1.00D-10  THRMO=  1.00D-09  THRPROD=  1.00D-09
                         THRSW=  1.00D-05  THROV=  1.00D-12  THRF12=   1.00D-08

 CPU time for Fock operators                      0.96 sec
 
 Construction of ABS:
 Smallest eigenvalue of S          2.06E-04  (threshold= 1.00E-08)
 Ratio eigmin/eigmax               1.47E-06  (threshold= 1.00E-09)
 Smallest eigenvalue of S kept     2.06E-04  (threshold= 2.06E-04, 0 functions deleted, 376 kept)
 
 Construction of CABS:
 Smallest eigenvalue of S          2.13E-08  (threshold= 1.00E-08)
 Ratio eigmin/eigmax               2.13E-08  (threshold= 1.00E-09)
 Smallest eigenvalue of S kept     2.13E-08  (threshold= 2.13E-08, 0 functions deleted, 376 kept)
 
 CPU time for CABS singles                        0.15 sec

 CABS-singles contribution of  -0.01592014 patched into reference energy.
 New reference energy        -263.73962884
 
 AO(A)-basis ORBITAL           loaded. Number of functions:     230
 RI(R)-basis CC-PVTZ/JKFIT     loaded. Number of functions:     376
 DF-basis AUG-CC-PVTZ/MP2FIT   loaded. Number of functions:     516

 Screening thresholds:   THRAO=  1.00D-10  THRMO=  1.00D-09  THRPROD=  1.00D-09
                         THRSW=  1.00D-05  THROV=  1.00D-12  THRF12=   1.00D-08

 CPU time for 3-index integral evaluation         3.15 sec
 CPU time for first  half transformation          0.18 sec (16507.7 MFLOP/sec)
 CPU time for second half transformation          0.03 sec ( 3326.7 MFLOP/sec)
 CPU time for sorting                             0.15 sec
 CPU time for fitting                             0.06 sec (25258.8 MFLOP/sec)
 CPU time for tilde quantities                    0.05 sec (36977.6 MFLOP/sec)
 CPU time for assembly                            0.78 sec (30819.5 MFLOP/sec)
 CPU time for tranop_f12                          0.88 sec (34172.8 MFLOP/sec)
 CPU time for f12 integrals (total)               7.33 sec
 F12-matrices built in  3 passes.
 F12-matrices built in  3 passes.
 F12-matrices built in  3 passes.
 F12-matrices built in  3 passes.
 FC-matrix built in  3 passes.
 CPU time for f12 matrices (total)                0.50 sec

 Diagonal F12 approximation with fixed coefficients:  TSING= 0.500,  TTRIP= 0.250 (scaled by -1/beta)

 DF-MP2-F12 energy corrections:
 ------------------------------
 Approx.                                    Singlet             Triplet             Total
 DF-MP2-F12/3*C(DX,FIX)                -0.097205351626     -0.017134515343     -0.114339866969
 DF-MP2-F12/3*C(FIX)                   -0.079502909194     -0.013610648519     -0.093113557712
 DF-MP2-F12/3C(FIX)                    -0.079897263561     -0.013679486574     -0.093576750134

 DF-MP2-F12 correlation energies:
 --------------------------------
 Approx.                                    Singlet             Triplet             Ecorr            Total Energy
 DF-MP2                                -0.542650234149     -0.351953110139     -0.894603344288   -264.634232183070
 DF-MP2-F12/3*C(DX,FIX)                -0.639855585775     -0.369087625481     -1.008943211257   -264.748572050039
 DF-MP2-F12/3*C(FIX)                   -0.622153143343     -0.365563758657     -0.987716902000   -264.727345740783
 DF-MP2-F12/3C(FIX)                    -0.622547497710     -0.365632596712     -0.988180094422   -264.727808933205

 SCS-DF-MP2 energies (F_SING= 1.20000  F_TRIP= 0.62222  F_PARALLEL= 0.33333):
 ----------------------------------------------------------------------------
 SCS-DF-MP2                            -0.870173327288   -264.609802166070
 SCS-DF-MP2-F12/3*C(DX,FIX)            -0.997481225452   -264.737110064235
 SCS-DF-MP2-F12/3*C(FIX)               -0.974045666287   -264.713674505070
 SCS-DF-MP2-F12/3C(FIX)                -0.974561724095   -264.714190562878
 Symmetry transformation completed.

 Number of N-1 electron functions:              12
 Number of N-2 electron functions:              78
 Number of singly external CSFs:              2568
 Number of doubly external CSFs:           3298596
 Total number of CSFs:                     3301165

 Pair and operator lists are different

 Length of J-op  integral file:             474.22 MB
 Length of K-op  integral file:             572.29 MB
 Length of 3-ext integral record:             0.00 MB

 For full I/O caching in triples, increase memory by 50.81 Mwords to 151.09 Mwords.

 Integral transformation finished. Total CPU:  13.59 sec, npass=  1  Memory used:  87.46 MW

 Reference energy:                   -263.73962884

 Adding F12 terms to K(Cij), methodcc=6,  factor=1.0

 ITER.      SQ.NORM     CORR.ENERGY   TOTAL ENERGY   ENERGY CHANGE        DEN1      VAR(S)    VAR(P)  DIIS     TIME
   1      1.20453092    -0.87440325  -264.61403209     0.02020316     0.05029710  0.78D-02  0.60D-02  1  1    31.75
   2      1.21949795    -0.86976968  -264.60939852     0.00463357    -0.02117927  0.95D-04  0.62D-03  2  2    40.65
   3      1.22502457    -0.86986334  -264.60949218    -0.00009366    -0.00225629  0.15D-03  0.34D-04  3  3    49.45
   4      1.22803847    -0.86970591  -264.60933475     0.00015743    -0.00146723  0.99D-05  0.46D-05  4  4    58.24
   5      1.22922399    -0.86966424  -264.60929308     0.00004167    -0.00040580  0.97D-06  0.35D-06  5  5    67.11
   6      1.22942071    -0.86963441  -264.60926325     0.00002982    -0.00000818  0.94D-07  0.45D-07  6  6    76.00
   7      1.22946542    -0.86963048  -264.60925932     0.00000393    -0.00000693  0.21D-07  0.72D-08  6  2    84.89
   8      1.22947017    -0.86962981  -264.60925865     0.00000067     0.00000147  0.29D-08  0.10D-08  6  1    93.73
   9      1.22947052    -0.86963010  -264.60925894    -0.00000029     0.00000175  0.67D-09  0.15D-09  6  4   102.58

 Norm of t1 vector:      0.11082849      S-energy:    -0.00000007      T1 diagnostic:  0.01599671
                                                                       D1 diagnostic:  0.04899127

 Adding energy correction from Wij-K(Fij), methodcc=6  factor=1.0
 
  CCSD correlation energy              -0.869630102263
  MP2-F12 correction (uncoupled)       -0.092319789101
  C*T doubles correction               -0.001533068626
  f12b correction                       0.015436255811


 Total CPU time for triples:    209.57 sec


 RESULTS
 =======

  Reference energy                   -263.723708693960
  F12 singles correction               -0.015920144822

 F12 singles corrections added to reference energy

  New reference energy               -263.739628838782

  F12a singlet correction              -0.080086934301
  F12a triplet correction              -0.013765923427
  F12a total correction                -0.093852857728

 F12a corrections for ansatz F12/3C(FIX) added to CCSD energy
 
  CCSD-F12a singlet pair energy        -0.645097634104
  CCSD-F12a triplet pair energy        -0.318385251711
  CCSD-F12a correlation energy         -0.963482959990

  Triples (T) contribution             -0.039682604065
  Total correlation energy             -1.003165564055

  CCSD-F12a total energy             -264.703111798773
  CCSD[T]-F12a energy                -264.745543293488
  CCSD-T-F12a energy                 -264.741809536807
 !CCSD(T)-F12a total energy          -264.742794402837

 F12b corrections for ansatz F12/3C(FIX) added to CCSD(T)-F12a energy

  CCSD-F12b singlet pair energy        -0.630913930588
  CCSD-F12b triplet pair energy        -0.317132699416
  CCSD-F12b correlation energy         -0.948046704179

  Triples (T) contribution             -0.039682604065
  Total correlation energy             -0.987729308244

  CCSD-F12b total energy             -264.687675542961
  CCSD[T]-F12b energy                -264.730107037677
  CCSD-T-F12b energy                 -264.726373280996
 !CCSD(T)-F12b total energy          -264.727358147026

 Timing summary (sec):

 STEP                 CPU(USER)    SYS     CPU(TOT)    WALL
 Transformation         13.69      1.02     14.71     14.70
 CCSD iterations        79.42      3.13     82.55     82.62
 Triples               209.57      2.48    212.05    211.94
 MP2-F12                 9.49      1.07     10.56     10.57
 F12b energy             6.23      0.09      6.32      6.32

 Program statistics:

 Available memory in ccsd:                99998934
 Min. memory needed in ccsd:               8644845
 Max. memory used in ccsd:                11598633
 Max. memory used in cckext:               8768967 (10 integral passes)



 **********************************************************************************************************************************
 DATASETS  * FILE   NREC   LENGTH (MB)   RECORD NAMES
              1      20      527.84       500      610      700      900      950      970     1000      129      960     1100   
                                          VAR    BASINP    GEOM    SYMINP    ZMAT    AOBASIS   BASIS     P2S    ABASIS      S 
                                         1400     1410     1200     1210     1080     1600     1650     1700      960(1)  1380   
                                           T        V       H0       H01     AOSYM     SMH    MOLCAS    OPER    ABASIS    JKOP   

              2       5        2.50       700     1000     2100     7360     7350   
                                         GEOM     BASIS     RHF    F12ABS    EF12   

 PROGRAMS   *        TOTAL   CCSD(T)        HF       INT
 CPU TIMES  *       343.22    318.50     12.46     12.18
 REAL TIME  *       354.28 SEC
 DISK USED  *         5.34 GB      
 SF USED    *         1.91 GB      
 GA USED    *         2.40 MB       (max)       0.00 MB       (current)
 **********************************************************************************************************************************

     CCSD(T)-F12        HF-SCF  
   -264.72735815   -263.72370869
 **********************************************************************************************************************************
 Variable memory released
