
 Primary working directories    : /scratch/kee
 Secondary working directories  : /scratch/kee
 Wavefunction directory         : /home/kee/wfu/
 Main file repository           : /scratch/kee/

 ARCHNAME  : Linux/x86_64
 FC        : /opt/intel/composer_xe_2015.0.090/bin/intel64/ifort
 FCVERSION : 15.0.0
 BLASLIB   : -L/opt/intel/mkl/lib/intel64 -lmkl_intel_ilp64 -lmkl_sequential -lmkl_core
 id        : emory

 Nodes     nprocs
 node19       3
 Number of processes for MPI-2 version of Molpro:   nprocs(total)=    4   nprocs(compute)=    3   nprocs(helper)=    1
 ga_uses_ma=false, calling ma_init with nominal heap.
 GA-space will be limited to   8.0 MW (determined by -G option)

 Using customized tuning parameters: mindgm=7; mindgv=32; mindgc=1; mindgr=1; noblas=0; mincuda=1000; minvec=7
 default implementation of scratch files=sf  

 ***,co2h2o
 memory,100,m
 basis avtz
 geomtype = xyz
 geometry = {
 6
       0.00000777
 O    10.97257393   -1.10347931    0.00000000
 O    11.76744404    1.08065151   -0.00000000
 O     9.29356282    0.00000000    0.00000000
 H     8.54556774    0.58340495    0.10287003
 H    10.04598802    0.58686026    0.10347930
 C    11.34356282    0.00000000    0.00000000
 }
 hf
 ccsd(t)-f12
 ---

 Variables initialized (665), CPU time= 0.01 sec
 Commands  initialized (462), CPU time= 0.00 sec, 486 directives.
 Default parameters read. Elapsed time= 0.03 sec

 Checking input...
 Passed
1


                                         ***  PROGRAM SYSTEM MOLPRO  ***
                         Copyright, University College Cardiff Consultants Limited, 2008

                                    Version 2010.1 linked 9 Dec 2014 15:06:28 


 **********************************************************************************************************************************
 LABEL *   co2h2o                                                                        
 Linux-2.6.32-504.el6.x86_64/node19(x86_64) 64 bit mpp version                           DATE: 18-Jan-17          TIME: 21:02:45  
 **********************************************************************************************************************************

 Patch level:      19
 **********************************************************************************************************************************

 Variable memory set to  100000000 words,  buffer space   230000 words

 SETTING BASIS          =    AVTZ
 SETTING GEOMTYPE       =    XYZ

Geometry recognized as XYZ



 Recomputing integrals since basis changed


 Using spherical harmonics

 Library entry O      S aug-cc-pVTZ          selected for orbital group  1
 Library entry O      P aug-cc-pVTZ          selected for orbital group  1
 Library entry O      D aug-cc-pVTZ          selected for orbital group  1
 Library entry O      F aug-cc-pVTZ          selected for orbital group  1
 Library entry H      S aug-cc-pVTZ          selected for orbital group  2
 Library entry H      P aug-cc-pVTZ          selected for orbital group  2
 Library entry H      D aug-cc-pVTZ          selected for orbital group  2
 Library entry C      S aug-cc-pVTZ          selected for orbital group  3
 Library entry C      P aug-cc-pVTZ          selected for orbital group  3
 Library entry C      D aug-cc-pVTZ          selected for orbital group  3
 Library entry C      F aug-cc-pVTZ          selected for orbital group  3

1PROGRAM * SEWARD (Integral evaluation for generally contracted gaussian basis sets)     Author: Roland Lindh, 1990

 Geometry written to block  1 of record 700


 Point group  C1  



 ATOMIC COORDINATES

 NR  ATOM    CHARGE       X              Y              Z

   1  O       8.00   20.735159684   -2.085273688    0.000000000
   2  O       8.00   22.237246502    2.042135397    0.000000000
   3  O       8.00   17.562288515    0.000000000    0.000000000
   4  H       1.00   16.148782666    1.102475579    0.194396184
   5  H       1.00   18.984166077    1.109005169    0.195547537
   6  C       6.00   21.436227084    0.000000000    0.000000000

 Bond lengths in Bohr (Angstrom)

 1-6  2.199968602  2-6  2.193615529  3-4  1.803119814  3-5  1.813799081  5-6  2.698283619
     (1.164173245)     (1.160811343)     (0.954169911)     (0.959821135)     (1.427870194)

 Bond angles

  1-6-2  177.16520951   1-6-5   95.73825221   2-6-5   87.08904001   3-5-6  116.95407758

  4-3-5  103.24222917

 NUCLEAR CHARGE:                   32
 NUMBER OF PRIMITIVE AOS:         322
 NUMBER OF SYMMETRY AOS:          282
 NUMBER OF CONTRACTIONS:          230   ( 230A   )
 NUMBER OF CORE ORBITALS:           4   (   4A   )
 NUMBER OF VALENCE ORBITALS:       18   (  18A   )


 NUCLEAR REPULSION ENERGY  119.87970479


 Eigenvalues of metric

         1 0.618E-04 0.135E-03 0.168E-03 0.193E-03 0.315E-03 0.338E-03 0.559E-03 0.676E-03


 Contracted 2-electron integrals neglected if value below      1.0D-11
 AO integral compression algorithm  1   Integral accuracy      1.0D-11

     1299.710 MB (compressed) written to integral file ( 39.6%)

     Node minimum: 422.314 MB, node maximum: 446.431 MB


 NUMBER OF SORTED TWO-ELECTRON INTEGRALS:  117629820.     BUFFER LENGTH:  32768
 NUMBER OF SEGMENTS:   8  SEGMENT LENGTH:   15997437      RECORD LENGTH: 524288

 Memory used in sort:      16.55 MW

 SORT1 READ   410697961. AND WROTE    90927299. INTEGRALS IN    264 RECORDS. CPU TIME:     5.01 SEC, REAL TIME:     5.93 SEC
 SORT2 READ   273045773. AND WROTE   352862895. INTEGRALS IN   5109 RECORDS. CPU TIME:     1.55 SEC, REAL TIME:     2.28 SEC

 Node minimum:   117612110.  Node maximum:   117629820. integrals

 OPERATOR DM      FOR CENTER  0  COORDINATES:    0.000000    0.000000    0.000000


 **********************************************************************************************************************************
 DATASETS  * FILE   NREC   LENGTH (MB)   RECORD NAMES
              1      18        4.62       500      610      700      900      950      970     1000      129      960     1100   
                                          VAR    BASINP    GEOM    SYMINP    ZMAT    AOBASIS   BASIS     P2S    ABASIS      S 
                                         1400     1410     1200     1210     1080     1600     1650     1700   
                                           T        V       H0       H01     AOSYM     SMH    MOLCAS    OPER   

 PROGRAMS   *        TOTAL       INT
 CPU TIMES  *        11.61     11.54
 REAL TIME  *        13.56 SEC
 DISK USED  *         4.53 GB      
 GA USED    *         0.00 MB       (max)       0.00 MB       (current)
 **********************************************************************************************************************************

1PROGRAM * RHF-SCF (CLOSED SHELL)       Authors: W. Meyer, H.-J. Werner


 NUMBER OF ELECTRONS:      16+   16-    SPACE SYMMETRY=1    SPIN SYMMETRY=Singlet 
 CONVERGENCE THRESHOLDS:    1.00E-05 (Density)    1.00E-07 (Energy)
 MAX. NUMBER OF ITERATIONS:       60
 INTERPOLATION TYPE:            DIIS
 INTERPOLATION STEPS:              2 (START)      1 (STEP)
 LEVEL SHIFTS:                  0.00 (CLOSED)  0.00 (OPEN) 



 Orbital guess generated from atomic densities. Full valence occupancy:   22

 Molecular orbital dump at record        2100.2

 ITERATION    DDIFF          GRAD             ENERGY        2-EL.EN.            DIPOLE MOMENTS         DIIS
    1      0.000D+00      0.000D+00      -263.53785614    434.024303   -0.03120    1.22574    0.18398    0
    2      0.000D+00      0.494D-02      -263.60425931    430.421461   -0.34027    0.22605    0.08719    1
    3      0.815D-02      0.355D-02      -263.65910209    432.574234   -0.16551    0.69690    0.11586    2
    4      0.344D-02      0.428D-03      -263.65994359    432.393712   -0.19971    0.61428    0.11821    3
    5      0.528D-03      0.192D-03      -263.66013536    432.370527   -0.18905    0.64846    0.11753    4
    6      0.224D-03      0.513D-04      -263.66015293    432.388488   -0.19467    0.63855    0.11728    5
    7      0.636D-04      0.154D-04      -263.66015486    432.387568   -0.19488    0.63977    0.11736    6
    8      0.239D-04      0.537D-05      -263.66015514    432.384245   -0.19539    0.63938    0.11732    7
    9      0.814D-05      0.168D-05      -263.66015518    432.385734   -0.19555    0.63944    0.11732    8
   10      0.365D-05      0.687D-06      -263.66015518    432.385303   -0.19557    0.63942    0.11732    0

 Final occupancy:  16

 !RHF STATE 1.1 Energy               -263.660155182769
 Nuclear energy                       119.87970479
 One-electron energy                 -599.73251163
 Two-electron energy                  216.19265166
 Virial quotient                       -0.99945296
 !RHF STATE 1.1 Dipole moment          -0.19557258     0.63942329     0.11731692
 Dipole moment /Debye                  -0.49706337     1.62514545     0.29817033

 Orbital energies:

         1.1          2.1          3.1          4.1          5.1          6.1          7.1          8.1          9.1         10.1
    -20.659478   -20.628363   -20.577647   -11.461244    -1.547825    -1.480654    -1.378642    -0.845449    -0.790967    -0.738169

        11.1         12.1         13.1         14.1         15.1         16.1         17.1         18.1
     -0.720232    -0.644040    -0.625185    -0.550981    -0.520879    -0.503850     0.027189     0.046371


 **********************************************************************************************************************************
 DATASETS  * FILE   NREC   LENGTH (MB)   RECORD NAMES
              1      18        4.62       500      610      700      900      950      970     1000      129      960     1100   
                                          VAR    BASINP    GEOM    SYMINP    ZMAT    AOBASIS   BASIS     P2S    ABASIS      S 
                                         1400     1410     1200     1210     1080     1600     1650     1700   
                                           T        V       H0       H01     AOSYM     SMH    MOLCAS    OPER   

              2       3        1.44       700     1000     2100   
                                         GEOM     BASIS     RHF  

 PROGRAMS   *        TOTAL        HF       INT
 CPU TIMES  *        23.99     12.38     11.54
 REAL TIME  *        26.63 SEC
 DISK USED  *         4.56 GB      
 SF USED    *         0.21 MB      
 GA USED    *         0.00 MB       (max)       0.00 MB       (current)
 **********************************************************************************************************************************


1PROGRAM * CCSD (Closed-shell coupled cluster)     Authors: C. Hampel, H.-J. Werner, 1991, M. Deegan, P.J. Knowles, 1992

                                  CCSD-F12 implementation by  H.-J. Werner, 2007

                   Density fitting integral evaluation by F.R. Manby, 2003,2007, G. Knizia, 2010

 Basis set CC-PVTZ/JKFIT generated.      Number of basis functions:   376 
 Basis set AUG-CC-PVTZ/MP2FIT generated. Number of basis functions:   516 

 Convergence thresholds:  THRVAR = 1.00D-08  THRDEN = 1.00D-06

 CCSD(T)     terms to be evaluated (factor= 1.000)


 Number of core orbitals:           4 (   4 )
 Number of closed-shell orbitals:  12 (  12 )
 Number of external orbitals:     214 ( 214 )

 Molecular orbitals read from record     2100.2  Type=RHF/CANONICAL (state 1.1)

 MP2-F12 correlation treatment (H.-J. Werner, 2006)
 --------------------------------------------------

 Using MP2-F12 with ansatz 3C(FIX)

 Using projected zeroth-order Hamiltonian (+Z)

 FOCKRIB=T FOCKRIC=T FOCKRIP=T CABSP=T CABSA=T CABSK=T CABSF=T GBC=F EBC=F DMAT=T NOFIK=T NOPAO=1 SOLVE=-1  USEPAO=0
 EXCH_A= T EXCH_B= F EXCH_C= F EXCH_P= F
 
 Geminal basis:    OPTFULL  GEM_TYPE=SLATER  BETA=1.0  NGEM=6

 Optimizing Gaussian exponents for each gem_beta

 Geminal optimization for beta= 1.0000
 Weight function:   m=0, omega= 1.4646

 Augmented Hessian optimization of geminal fit. Trust ratio= 0.40000
 Convergence reached after   2 iterations. Final gradient= 8.24D-16, Step= 4.32D-06, Delta= 1.28D-09
 
 Alpha:                 0.19532     0.81920     2.85917     9.50073    35.69989   197.79328
 Coeff:                 0.27070     0.30552     0.18297     0.10986     0.06810     0.04224
 

 All pairs explicitly correlated. Number of r12-pairs:           78
 
 AO(A)-basis ORBITAL           loaded. Number of functions:     230
 RI(R)-basis CC-PVTZ/JKFIT     loaded. Number of functions:     376
 DF-basis CC-PVTZ/JKFIT        loaded. Number of functions:     376

 Screening thresholds:   THRAO=  1.00D-10  THRMO=  1.00D-09  THRPROD=  1.00D-09
                         THRSW=  1.00D-05  THROV=  1.00D-12  THRF12=   1.00D-08

 CPU time for Fock operators                      0.99 sec
 
 Construction of ABS:
 Smallest eigenvalue of S          1.95E-04  (threshold= 1.00E-08)
 Ratio eigmin/eigmax               1.39E-06  (threshold= 1.00E-09)
 Smallest eigenvalue of S kept     1.95E-04  (threshold= 1.95E-04, 0 functions deleted, 376 kept)
 
 Construction of CABS:
 Smallest eigenvalue of S          2.07E-08  (threshold= 1.00E-08)
 Ratio eigmin/eigmax               2.07E-08  (threshold= 1.00E-09)
 Smallest eigenvalue of S kept     2.07E-08  (threshold= 2.07E-08, 0 functions deleted, 376 kept)
 
 CPU time for CABS singles                        0.16 sec

 CABS-singles contribution of  -0.01591984 patched into reference energy.
 New reference energy        -263.67607503
 
 AO(A)-basis ORBITAL           loaded. Number of functions:     230
 RI(R)-basis CC-PVTZ/JKFIT     loaded. Number of functions:     376
 DF-basis AUG-CC-PVTZ/MP2FIT   loaded. Number of functions:     516

 Screening thresholds:   THRAO=  1.00D-10  THRMO=  1.00D-09  THRPROD=  1.00D-09
                         THRSW=  1.00D-05  THROV=  1.00D-12  THRF12=   1.00D-08

 CPU time for 3-index integral evaluation         3.05 sec
 CPU time for first  half transformation          0.32 sec ( 9440.4 MFLOP/sec)
 CPU time for second half transformation          0.03 sec ( 3468.0 MFLOP/sec)
 CPU time for sorting                             0.18 sec
 CPU time for fitting                             0.04 sec (34826.3 MFLOP/sec)
 CPU time for tilde quantities                    0.06 sec (30814.7 MFLOP/sec)
 CPU time for assembly                            0.77 sec (30076.8 MFLOP/sec)
 CPU time for tranop_f12                          0.90 sec (33603.9 MFLOP/sec)
 CPU time for f12 integrals (total)               7.39 sec
 F12-matrices built in  3 passes.
 F12-matrices built in  3 passes.
 F12-matrices built in  3 passes.
 F12-matrices built in  3 passes.
 FC-matrix built in  3 passes.
 CPU time for f12 matrices (total)                0.47 sec

 Diagonal F12 approximation with fixed coefficients:  TSING= 0.500,  TTRIP= 0.250 (scaled by -1/beta)

 DF-MP2-F12 energy corrections:
 ------------------------------
 Approx.                                    Singlet             Triplet             Total
 DF-MP2-F12/3*C(DX,FIX)                -0.097457269686     -0.017357994581     -0.114815264267
 DF-MP2-F12/3*C(FIX)                   -0.079565604969     -0.013796155920     -0.093361760889
 DF-MP2-F12/3C(FIX)                    -0.079977879246     -0.013884062165     -0.093861941411

 DF-MP2-F12 correlation energies:
 --------------------------------
 Approx.                                    Singlet             Triplet             Ecorr            Total Energy
 DF-MP2                                -0.545259145159     -0.357860444283     -0.903119589442   -264.579194615933
 DF-MP2-F12/3*C(DX,FIX)                -0.642716414845     -0.375218438864     -1.017934853709   -264.694009880200
 DF-MP2-F12/3*C(FIX)                   -0.624824750128     -0.371656600203     -0.996481350331   -264.672556376822
 DF-MP2-F12/3C(FIX)                    -0.625237024405     -0.371744506448     -0.996981530853   -264.673056557344

 SCS-DF-MP2 energies (F_SING= 1.20000  F_TRIP= 0.62222  F_PARALLEL= 0.33333):
 ----------------------------------------------------------------------------
 SCS-DF-MP2                            -0.876979695078   -264.553054721569
 SCS-DF-MP2-F12/3*C(DX,FIX)            -1.004728948663   -264.680803975154
 SCS-DF-MP2-F12/3*C(FIX)               -0.981042695835   -264.657117722326
 SCS-DF-MP2-F12/3C(FIX)                -0.981592122187   -264.657667148678
 Symmetry transformation completed.

 Number of N-1 electron functions:              12
 Number of N-2 electron functions:              78
 Number of singly external CSFs:              2568
 Number of doubly external CSFs:           3298596
 Total number of CSFs:                     3301165

 Pair and operator lists are different

 Length of J-op  integral file:             474.22 MB
 Length of K-op  integral file:             572.29 MB
 Length of 3-ext integral record:             0.00 MB

 For full I/O caching in triples, increase memory by 50.81 Mwords to 151.09 Mwords.

 Integral transformation finished. Total CPU:  12.84 sec, npass=  1  Memory used:  87.46 MW

 Reference energy:                   -263.67607503

 Adding F12 terms to K(Cij), methodcc=6,  factor=1.0

 ITER.      SQ.NORM     CORR.ENERGY   TOTAL ENERGY   ENERGY CHANGE        DEN1      VAR(S)    VAR(P)  DIIS     TIME
   1      1.20512921    -0.88128614  -264.55736117     0.02183094     0.05283113  0.83D-02  0.62D-02  1  1    31.25
   2      1.22040058    -0.87636739  -264.55244242     0.00491875    -0.02176020  0.11D-03  0.63D-03  2  2    40.61
   3      1.22612139    -0.87648028  -264.55255531    -0.00011289    -0.00220901  0.17D-03  0.35D-04  3  3    49.74
   4      1.22932884    -0.87630684  -264.55238186     0.00017345    -0.00150478  0.13D-04  0.52D-05  4  4    58.63
   5      1.23070799    -0.87626472  -264.55233975     0.00004212    -0.00044769  0.19D-05  0.44D-06  5  5    67.64
   6      1.23096540    -0.87623074  -264.55230577     0.00003398    -0.00001175  0.22D-06  0.87D-07  6  6    76.61
   7      1.23103645    -0.87622606  -264.55230109     0.00000468    -0.00000401  0.69D-07  0.12D-07  6  1    85.55
   8      1.23104366    -0.87622563  -264.55230065     0.00000043     0.00000280  0.11D-07  0.30D-08  6  3    94.54
   9      1.23105617    -0.87622435  -264.55229938     0.00000128    -0.00000489  0.18D-08  0.42D-09  6  2   103.51
  10      1.23105422    -0.87622485  -264.55229988    -0.00000050     0.00000062  0.29D-09  0.98D-10  6  5   112.96
  11      1.23105535    -0.87622487  -264.55229990    -0.00000002    -0.00000015  0.36D-10  0.12D-10  6  4   122.87

 Norm of t1 vector:      0.11518713      S-energy:     0.00000009      T1 diagnostic:  0.01662583
                                                                       D1 diagnostic:  0.05363124

 Adding energy correction from Wij-K(Fij), methodcc=6  factor=1.0
 
  CCSD correlation energy              -0.876224871672
  MP2-F12 correction (uncoupled)       -0.092551867497
  C*T doubles correction               -0.001577581790
  f12b correction                       0.015456764654


 Total CPU time for triples:    212.21 sec


 RESULTS
 =======

  Reference energy                   -263.660155182769
  F12 singles correction               -0.015919843721

 F12 singles corrections added to reference energy

  New reference energy               -263.676075026491

  F12a singlet correction              -0.080169829094
  F12a triplet correction              -0.013959620193
  F12a total correction                -0.094129449287

 F12a corrections for ansatz F12/3C(FIX) added to CCSD energy
 
  CCSD-F12a singlet pair energy        -0.646719782762
  CCSD-F12a triplet pair energy        -0.323634627995
  CCSD-F12a correlation energy         -0.970354320959

  Triples (T) contribution             -0.040798025471
  Total correlation energy             -1.011152346430

  CCSD-F12a total energy             -264.646429347450
  CCSD[T]-F12a energy                -264.690126493013
  CCSD-T-F12a energy                 -264.686227444787
 !CCSD(T)-F12a total energy          -264.687227372921

 F12b corrections for ansatz F12/3C(FIX) added to CCSD(T)-F12a energy

  CCSD-F12b singlet pair energy        -0.632535301476
  CCSD-F12b triplet pair energy        -0.322362344628
  CCSD-F12b correlation energy         -0.954897556306

  Triples (T) contribution             -0.040798025471
  Total correlation energy             -0.995695581776

  CCSD-F12b total energy             -264.630972582796
  CCSD[T]-F12b energy                -264.674669728360
  CCSD-T-F12b energy                 -264.670770680133
 !CCSD(T)-F12b total energy          -264.671770608267

 Timing summary (sec):

 STEP                 CPU(USER)    SYS     CPU(TOT)    WALL
 Transformation         12.95      1.10     14.05     14.04
 CCSD iterations       100.34      3.97    104.31    107.38
 Triples               212.21      2.36    214.57    214.50
 MP2-F12                 9.60      1.11     10.71     10.70
 F12b energy             7.47      0.09      7.56      7.56

 Program statistics:

 Available memory in ccsd:                99998934
 Min. memory needed in ccsd:               8644845
 Max. memory used in ccsd:                11598633
 Max. memory used in cckext:               8768967 (12 integral passes)



 **********************************************************************************************************************************
 DATASETS  * FILE   NREC   LENGTH (MB)   RECORD NAMES
              1      20      527.84       500      610      700      900      950      970     1000      129      960     1100   
                                          VAR    BASINP    GEOM    SYMINP    ZMAT    AOBASIS   BASIS     P2S    ABASIS      S 
                                         1400     1410     1200     1210     1080     1600     1650     1700      960(1)  1380   
                                           T        V       H0       H01     AOSYM     SMH    MOLCAS    OPER    ABASIS    JKOP   

              2       5        2.50       700     1000     2100     7360     7350   
                                         GEOM     BASIS     RHF    F12ABS    EF12   

 PROGRAMS   *        TOTAL   CCSD(T)        HF       INT
 CPU TIMES  *       366.66    342.66     12.38     11.54
 REAL TIME  *       381.15 SEC
 DISK USED  *         5.43 GB      
 SF USED    *         1.91 GB      
 GA USED    *         2.40 MB       (max)       0.00 MB       (current)
 **********************************************************************************************************************************

     CCSD(T)-F12        HF-SCF  
   -264.67177061   -263.66015518
 **********************************************************************************************************************************
 Variable memory released
