
 Primary working directories    : /scratch/kee
 Secondary working directories  : /scratch/kee
 Wavefunction directory         : /home/kee/wfu/
 Main file repository           : /scratch/kee/

 ARCHNAME  : Linux/x86_64
 FC        : /opt/intel/composer_xe_2015.0.090/bin/intel64/ifort
 FCVERSION : 15.0.0
 BLASLIB   : -L/opt/intel/mkl/lib/intel64 -lmkl_intel_ilp64 -lmkl_sequential -lmkl_core
 id        : emory

 Nodes     nprocs
 node19       3
 Number of processes for MPI-2 version of Molpro:   nprocs(total)=    4   nprocs(compute)=    3   nprocs(helper)=    1
 ga_uses_ma=false, calling ma_init with nominal heap.
 GA-space will be limited to   8.0 MW (determined by -G option)

 Using customized tuning parameters: mindgm=7; mindgv=32; mindgc=1; mindgr=1; noblas=0; mincuda=1000; minvec=7
 default implementation of scratch files=sf  

 ***,co2h2o
 memory,100,m
 basis avtz
 geomtype = xyz
 geometry = {
 6
       0.00000777
 O    10.97257393   -1.10347931    0.00000000
 O    11.76744404    1.08065151   -0.00000000
 O     8.84356282    0.00000000    0.00000000
 H     8.09556774    0.58340495    0.10287003
 H     9.59598802    0.58686026    0.10347930
 C    11.34356282    0.00000000    0.00000000
 }
 hf
 ccsd(t)-f12
 ---

 Variables initialized (665), CPU time= 0.01 sec
 Commands  initialized (462), CPU time= 0.00 sec, 486 directives.
 Default parameters read. Elapsed time= 0.03 sec

 Checking input...
 Passed
1


                                         ***  PROGRAM SYSTEM MOLPRO  ***
                         Copyright, University College Cardiff Consultants Limited, 2008

                                    Version 2010.1 linked 9 Dec 2014 15:06:28 


 **********************************************************************************************************************************
 LABEL *   co2h2o                                                                        
 Linux-2.6.32-504.el6.x86_64/node19(x86_64) 64 bit mpp version                           DATE: 18-Jan-17          TIME: 21:58:23  
 **********************************************************************************************************************************

 Patch level:      19
 **********************************************************************************************************************************

 Variable memory set to  100000000 words,  buffer space   230000 words

 SETTING BASIS          =    AVTZ
 SETTING GEOMTYPE       =    XYZ

Geometry recognized as XYZ



 Recomputing integrals since basis changed


 Using spherical harmonics

 Library entry O      S aug-cc-pVTZ          selected for orbital group  1
 Library entry O      P aug-cc-pVTZ          selected for orbital group  1
 Library entry O      D aug-cc-pVTZ          selected for orbital group  1
 Library entry O      F aug-cc-pVTZ          selected for orbital group  1
 Library entry H      S aug-cc-pVTZ          selected for orbital group  2
 Library entry H      P aug-cc-pVTZ          selected for orbital group  2
 Library entry H      D aug-cc-pVTZ          selected for orbital group  2
 Library entry C      S aug-cc-pVTZ          selected for orbital group  3
 Library entry C      P aug-cc-pVTZ          selected for orbital group  3
 Library entry C      D aug-cc-pVTZ          selected for orbital group  3
 Library entry C      F aug-cc-pVTZ          selected for orbital group  3

1PROGRAM * SEWARD (Integral evaluation for generally contracted gaussian basis sets)     Author: Roland Lindh, 1990

 Geometry written to block  1 of record 700


 Point group  C1  



 ATOMIC COORDINATES

 NR  ATOM    CHARGE       X              Y              Z

   1  O       8.00   20.735159684   -2.085273688    0.000000000
   2  O       8.00   22.237246502    2.042135397    0.000000000
   3  O       8.00   16.711911756    0.000000000    0.000000000
   4  H       1.00   15.298405907    1.102475579    0.194396184
   5  H       1.00   18.133789318    1.109005169    0.195547537
   6  C       6.00   21.436227084    0.000000000    0.000000000

 Bond lengths in Bohr (Angstrom)

 1-6  2.199968602  2-6  2.193615529  3-4  1.803119814  3-5  1.813799081
     (1.164173245)     (1.160811343)     (0.954169911)     (0.959821135)

 Bond angles

  1-6-2  177.16520951   4-3-5  103.24222917

 NUCLEAR CHARGE:                   32
 NUMBER OF PRIMITIVE AOS:         322
 NUMBER OF SYMMETRY AOS:          282
 NUMBER OF CONTRACTIONS:          230   ( 230A   )
 NUMBER OF CORE ORBITALS:           4   (   4A   )
 NUMBER OF VALENCE ORBITALS:       18   (  18A   )


 NUCLEAR REPULSION ENERGY  111.55040887


 Eigenvalues of metric

         1 0.151E-03 0.176E-03 0.252E-03 0.282E-03 0.328E-03 0.479E-03 0.798E-03 0.821E-03


 Contracted 2-electron integrals neglected if value below      1.0D-11
 AO integral compression algorithm  1   Integral accuracy      1.0D-11

     1231.815 MB (compressed) written to integral file ( 37.5%)

     Node minimum: 405.275 MB, node maximum: 417.858 MB


 NUMBER OF SORTED TWO-ELECTRON INTEGRALS:  117629820.     BUFFER LENGTH:  32768
 NUMBER OF SEGMENTS:   8  SEGMENT LENGTH:   15997437      RECORD LENGTH: 524288

 Memory used in sort:      16.55 MW

 SORT1 READ   410697961. AND WROTE    88747925. INTEGRALS IN    258 RECORDS. CPU TIME:     4.84 SEC, REAL TIME:     5.68 SEC
 SORT2 READ   266581578. AND WROTE   352862895. INTEGRALS IN   4638 RECORDS. CPU TIME:     1.68 SEC, REAL TIME:     2.38 SEC

 Node minimum:   117612110.  Node maximum:   117629820. integrals

 OPERATOR DM      FOR CENTER  0  COORDINATES:    0.000000    0.000000    0.000000


 **********************************************************************************************************************************
 DATASETS  * FILE   NREC   LENGTH (MB)   RECORD NAMES
              1      18        4.62       500      610      700      900      950      970     1000      129      960     1100   
                                          VAR    BASINP    GEOM    SYMINP    ZMAT    AOBASIS   BASIS     P2S    ABASIS      S 
                                         1400     1410     1200     1210     1080     1600     1650     1700   
                                           T        V       H0       H01     AOSYM     SMH    MOLCAS    OPER   

 PROGRAMS   *        TOTAL       INT
 CPU TIMES  *        11.45     11.38
 REAL TIME  *        13.29 SEC
 DISK USED  *         4.39 GB      
 GA USED    *         0.00 MB       (max)       0.00 MB       (current)
 **********************************************************************************************************************************

1PROGRAM * RHF-SCF (CLOSED SHELL)       Authors: W. Meyer, H.-J. Werner


 NUMBER OF ELECTRONS:      16+   16-    SPACE SYMMETRY=1    SPIN SYMMETRY=Singlet 
 CONVERGENCE THRESHOLDS:    1.00E-05 (Density)    1.00E-07 (Energy)
 MAX. NUMBER OF ITERATIONS:       60
 INTERPOLATION TYPE:            DIIS
 INTERPOLATION STEPS:              2 (START)      1 (STEP)
 LEVEL SHIFTS:                  0.00 (CLOSED)  0.00 (OPEN) 



 Orbital guess generated from atomic densities. Full valence occupancy:   22

 Molecular orbital dump at record        2100.2

 ITERATION    DDIFF          GRAD             ENERGY        2-EL.EN.            DIPOLE MOMENTS         DIIS
    1      0.000D+00      0.000D+00      -263.62170134    417.698099   -0.02420    1.16452    0.19282    0
    2      0.000D+00      0.483D-02      -263.69002845    413.813562   -0.16949    0.37940    0.09560    1
    3      0.778D-02      0.335D-02      -263.73882197    416.152225   -0.09464    0.68532    0.12231    2
    4      0.324D-02      0.349D-03      -263.73943627    415.937464   -0.11212    0.64323    0.12400    3
    5      0.424D-03      0.134D-03      -263.73953758    415.932486   -0.10472    0.66600    0.12315    4
    6      0.175D-03      0.539D-04      -263.73955389    415.949281   -0.10926    0.65578    0.12308    5
    7      0.598D-04      0.133D-04      -263.73955532    415.946420   -0.10907    0.65747    0.12311    6
    8      0.208D-04      0.461D-05      -263.73955548    415.944125   -0.10940    0.65692    0.12307    7
    9      0.622D-05      0.134D-05      -263.73955550    415.945234   -0.10946    0.65702    0.12308    8
   10      0.260D-05      0.480D-06      -263.73955551    415.944975   -0.10947    0.65699    0.12307    0

 Final occupancy:  16

 !RHF STATE 1.1 Energy               -263.739555505703
 Nuclear energy                       111.55040887
 One-electron energy                 -583.26245196
 Two-electron energy                  207.97248758
 Virial quotient                       -1.00114670
 !RHF STATE 1.1 Dipole moment          -0.10946871     0.65699263     0.12307330
 Dipole moment /Debye                  -0.27822349     1.66979933     0.31280065

 Orbital energies:

         1.1          2.1          3.1          4.1          5.1          6.1          7.1          8.1          9.1         10.1
    -20.660123   -20.646732   -20.577293   -11.462068    -1.536090    -1.479106    -1.369391    -0.806468    -0.772565    -0.742772

        11.1         12.1         13.1         14.1         15.1         16.1         17.1         18.1
     -0.717760    -0.677942    -0.606906    -0.546373    -0.536539    -0.520610     0.027828     0.046329


 **********************************************************************************************************************************
 DATASETS  * FILE   NREC   LENGTH (MB)   RECORD NAMES
              1      18        4.62       500      610      700      900      950      970     1000      129      960     1100   
                                          VAR    BASINP    GEOM    SYMINP    ZMAT    AOBASIS   BASIS     P2S    ABASIS      S 
                                         1400     1410     1200     1210     1080     1600     1650     1700   
                                           T        V       H0       H01     AOSYM     SMH    MOLCAS    OPER   

              2       3        1.44       700     1000     2100   
                                         GEOM     BASIS     RHF  

 PROGRAMS   *        TOTAL        HF       INT
 CPU TIMES  *        24.24     12.79     11.38
 REAL TIME  *        26.69 SEC
 DISK USED  *         4.42 GB      
 SF USED    *         0.21 MB      
 GA USED    *         0.00 MB       (max)       0.00 MB       (current)
 **********************************************************************************************************************************


1PROGRAM * CCSD (Closed-shell coupled cluster)     Authors: C. Hampel, H.-J. Werner, 1991, M. Deegan, P.J. Knowles, 1992

                                  CCSD-F12 implementation by  H.-J. Werner, 2007

                   Density fitting integral evaluation by F.R. Manby, 2003,2007, G. Knizia, 2010

 Basis set CC-PVTZ/JKFIT generated.      Number of basis functions:   376 
 Basis set AUG-CC-PVTZ/MP2FIT generated. Number of basis functions:   516 

 Convergence thresholds:  THRVAR = 1.00D-08  THRDEN = 1.00D-06

 CCSD(T)     terms to be evaluated (factor= 1.000)


 Number of core orbitals:           4 (   4 )
 Number of closed-shell orbitals:  12 (  12 )
 Number of external orbitals:     214 ( 214 )

 Molecular orbitals read from record     2100.2  Type=RHF/CANONICAL (state 1.1)

 MP2-F12 correlation treatment (H.-J. Werner, 2006)
 --------------------------------------------------

 Using MP2-F12 with ansatz 3C(FIX)

 Using projected zeroth-order Hamiltonian (+Z)

 FOCKRIB=T FOCKRIC=T FOCKRIP=T CABSP=T CABSA=T CABSK=T CABSF=T GBC=F EBC=F DMAT=T NOFIK=T NOPAO=1 SOLVE=-1  USEPAO=0
 EXCH_A= T EXCH_B= F EXCH_C= F EXCH_P= F
 
 Geminal basis:    OPTFULL  GEM_TYPE=SLATER  BETA=1.0  NGEM=6

 Optimizing Gaussian exponents for each gem_beta

 Geminal optimization for beta= 1.0000
 Weight function:   m=0, omega= 1.4646

 Augmented Hessian optimization of geminal fit. Trust ratio= 0.40000
 Convergence reached after   2 iterations. Final gradient= 8.24D-16, Step= 4.32D-06, Delta= 1.28D-09
 
 Alpha:                 0.19532     0.81920     2.85917     9.50073    35.69989   197.79328
 Coeff:                 0.27070     0.30552     0.18297     0.10986     0.06810     0.04224
 

 All pairs explicitly correlated. Number of r12-pairs:           78
 
 AO(A)-basis ORBITAL           loaded. Number of functions:     230
 RI(R)-basis CC-PVTZ/JKFIT     loaded. Number of functions:     376
 DF-basis CC-PVTZ/JKFIT        loaded. Number of functions:     376

 Screening thresholds:   THRAO=  1.00D-10  THRMO=  1.00D-09  THRPROD=  1.00D-09
                         THRSW=  1.00D-05  THROV=  1.00D-12  THRF12=   1.00D-08

 CPU time for Fock operators                      0.94 sec
 
 Construction of ABS:
 Smallest eigenvalue of S          2.13E-04  (threshold= 1.00E-08)
 Ratio eigmin/eigmax               1.52E-06  (threshold= 1.00E-09)
 Smallest eigenvalue of S kept     2.13E-04  (threshold= 2.13E-04, 0 functions deleted, 376 kept)
 
 Construction of CABS:
 Smallest eigenvalue of S          2.15E-08  (threshold= 1.00E-08)
 Ratio eigmin/eigmax               2.15E-08  (threshold= 1.00E-09)
 Smallest eigenvalue of S kept     2.15E-08  (threshold= 2.15E-08, 0 functions deleted, 376 kept)
 
 CPU time for CABS singles                        0.16 sec

 CABS-singles contribution of  -0.01588405 patched into reference energy.
 New reference energy        -263.75543955
 
 AO(A)-basis ORBITAL           loaded. Number of functions:     230
 RI(R)-basis CC-PVTZ/JKFIT     loaded. Number of functions:     376
 DF-basis AUG-CC-PVTZ/MP2FIT   loaded. Number of functions:     516

 Screening thresholds:   THRAO=  1.00D-10  THRMO=  1.00D-09  THRPROD=  1.00D-09
                         THRSW=  1.00D-05  THROV=  1.00D-12  THRF12=   1.00D-08

 CPU time for 3-index integral evaluation         3.20 sec
 CPU time for first  half transformation          0.21 sec (14482.8 MFLOP/sec)
 CPU time for second half transformation          0.04 sec ( 2793.1 MFLOP/sec)
 CPU time for sorting                             0.15 sec
 CPU time for fitting                             0.04 sec (34826.3 MFLOP/sec)
 CPU time for tilde quantities                    0.05 sec (36977.6 MFLOP/sec)
 CPU time for assembly                            0.77 sec (30687.5 MFLOP/sec)
 CPU time for tranop_f12                          0.88 sec (34490.8 MFLOP/sec)
 CPU time for f12 integrals (total)               7.42 sec
 F12-matrices built in  3 passes.
 F12-matrices built in  3 passes.
 F12-matrices built in  3 passes.
 F12-matrices built in  3 passes.
 FC-matrix built in  3 passes.
 CPU time for f12 matrices (total)                0.53 sec

 Diagonal F12 approximation with fixed coefficients:  TSING= 0.500,  TTRIP= 0.250 (scaled by -1/beta)

 DF-MP2-F12 energy corrections:
 ------------------------------
 Approx.                                    Singlet             Triplet             Total
 DF-MP2-F12/3*C(DX,FIX)                -0.097161348839     -0.017069635939     -0.114230984778
 DF-MP2-F12/3*C(FIX)                   -0.079500948060     -0.013550436267     -0.093051384327
 DF-MP2-F12/3C(FIX)                    -0.079888654146     -0.013609944768     -0.093498598914

 DF-MP2-F12 correlation energies:
 --------------------------------
 Approx.                                    Singlet             Triplet             Ecorr            Total Energy
 DF-MP2                                -0.541672165484     -0.349909317116     -0.891581482601   -264.647021034677
 DF-MP2-F12/3*C(DX,FIX)                -0.638833514323     -0.366978953056     -1.005812467379   -264.761252019455
 DF-MP2-F12/3*C(FIX)                   -0.621173113544     -0.363459753383     -0.984632866927   -264.740072419003
 DF-MP2-F12/3C(FIX)                    -0.621560819631     -0.363519261885     -0.985080081515   -264.740519633591

 SCS-DF-MP2 energies (F_SING= 1.20000  F_TRIP= 0.62222  F_PARALLEL= 0.33333):
 ----------------------------------------------------------------------------
 SCS-DF-MP2                            -0.867727951454   -264.623167503529
 SCS-DF-MP2-F12/3*C(DX,FIX)            -0.994942676867   -264.750382228943
 SCS-DF-MP2-F12/3*C(FIX)               -0.971560471691   -264.727000023767
 SCS-DF-MP2-F12/3C(FIX)                -0.972062746507   -264.727502298583
 Symmetry transformation completed.

 Number of N-1 electron functions:              12
 Number of N-2 electron functions:              78
 Number of singly external CSFs:              2568
 Number of doubly external CSFs:           3298596
 Total number of CSFs:                     3301165

 Pair and operator lists are different

 Length of J-op  integral file:             474.22 MB
 Length of K-op  integral file:             572.29 MB
 Length of 3-ext integral record:             0.00 MB

 For full I/O caching in triples, increase memory by 50.81 Mwords to 151.09 Mwords.

 Integral transformation finished. Total CPU:  13.10 sec, npass=  1  Memory used:  87.46 MW

 Reference energy:                   -263.75543955

 Adding F12 terms to K(Cij), methodcc=6,  factor=1.0

 ITER.      SQ.NORM     CORR.ENERGY   TOTAL ENERGY   ENERGY CHANGE        DEN1      VAR(S)    VAR(P)  DIIS     TIME
   1      1.20422566    -0.87192416  -264.62736371     0.01966278     0.04944216  0.77D-02  0.59D-02  1  1    31.64
   2      1.21908005    -0.86738903  -264.62282858     0.00453513    -0.02096653  0.92D-04  0.61D-03  2  2    40.89
   3      1.22456658    -0.86748094  -264.62292049    -0.00009190    -0.00228156  0.14D-03  0.34D-04  3  3    49.80
   4      1.22753258    -0.86733023  -264.62276978     0.00015070    -0.00145686  0.92D-05  0.45D-05  4  4    58.75
   5      1.22867286    -0.86728890  -264.62272845     0.00004133    -0.00039516  0.81D-06  0.33D-06  5  5    67.73
   6      1.22885756    -0.86726006  -264.62269961     0.00002884    -0.00000753  0.72D-07  0.37D-07  6  6    76.70
   7      1.22889649    -0.86725658  -264.62269613     0.00000349    -0.00000672  0.13D-07  0.61D-08  6  2    85.94
   8      1.22889951    -0.86725605  -264.62269560     0.00000053     0.00000168  0.17D-08  0.73D-09  6  1    95.71
   9      1.22889972    -0.86725626  -264.62269582    -0.00000022     0.00000143  0.39D-09  0.90D-10  6  4   105.35

 Norm of t1 vector:      0.10960296      S-energy:    -0.00000010      T1 diagnostic:  0.01581982
                                                                       D1 diagnostic:  0.04773007

 Adding energy correction from Wij-K(Fij), methodcc=6  factor=1.0
 
  CCSD correlation energy              -0.867256263280
  MP2-F12 correction (uncoupled)       -0.092269568786
  C*T doubles correction               -0.001514941678
  f12b correction                       0.015427707401


 Total CPU time for triples:    214.47 sec


 RESULTS
 =======

  Reference energy                   -263.739555505703
  F12 singles correction               -0.015884046373

 F12 singles corrections added to reference energy

  New reference energy               -263.755439552076

  F12a singlet correction              -0.080081625914
  F12a triplet correction              -0.013702884550
  F12a total correction                -0.093784510464

 F12a corrections for ansatz F12/3C(FIX) added to CCSD energy
 
  CCSD-F12a singlet pair energy        -0.644473496508
  CCSD-F12a triplet pair energy        -0.316567175016
  CCSD-F12a correlation energy         -0.961040773745

  Triples (T) contribution             -0.039265612671
  Total correlation energy             -1.000306386416

  CCSD-F12a total energy             -264.716480325821
  CCSD[T]-F12a energy                -264.758448048449
  CCSD-T-F12a energy                 -264.754767830021
 !CCSD(T)-F12a total energy          -264.755745938492

 F12b corrections for ansatz F12/3C(FIX) added to CCSD(T)-F12a energy

  CCSD-F12b singlet pair energy        -0.630291174610
  CCSD-F12b triplet pair energy        -0.315321789512
  CCSD-F12b correlation energy         -0.945613066343

  Triples (T) contribution             -0.039265612671
  Total correlation energy             -0.984878679015

  CCSD-F12b total energy             -264.701052618419
  CCSD[T]-F12b energy                -264.743020341048
  CCSD-T-F12b energy                 -264.739340122620
 !CCSD(T)-F12b total energy          -264.740318231091

 Timing summary (sec):

 STEP                 CPU(USER)    SYS     CPU(TOT)    WALL
 Transformation         13.20      1.08     14.28     14.27
 CCSD iterations        82.64      3.07     85.71     86.00
 Triples               214.47      2.45    216.92    216.86
 MP2-F12                 9.55      1.14     10.69     10.70
 F12b energy             6.71      0.08      6.79      6.79

 Program statistics:

 Available memory in ccsd:                99998934
 Min. memory needed in ccsd:               8644845
 Max. memory used in ccsd:                11598633
 Max. memory used in cckext:               8768967 (10 integral passes)



 **********************************************************************************************************************************
 DATASETS  * FILE   NREC   LENGTH (MB)   RECORD NAMES
              1      20      527.84       500      610      700      900      950      970     1000      129      960     1100   
                                          VAR    BASINP    GEOM    SYMINP    ZMAT    AOBASIS   BASIS     P2S    ABASIS      S 
                                         1400     1410     1200     1210     1080     1600     1650     1700      960(1)  1380   
                                           T        V       H0       H01     AOSYM     SMH    MOLCAS    OPER    ABASIS    JKOP   

              2       5        2.50       700     1000     2100     7360     7350   
                                         GEOM     BASIS     RHF    F12ABS    EF12   

 PROGRAMS   *        TOTAL   CCSD(T)        HF       INT
 CPU TIMES  *       350.90    326.66     12.79     11.38
 REAL TIME  *       361.63 SEC
 DISK USED  *         5.29 GB      
 SF USED    *         1.91 GB      
 GA USED    *         2.40 MB       (max)       0.00 MB       (current)
 **********************************************************************************************************************************

     CCSD(T)-F12        HF-SCF  
   -264.74031823   -263.73955551
 **********************************************************************************************************************************
 Variable memory released
