
 Primary working directories    : /scratch/kee
 Secondary working directories  : /scratch/kee
 Wavefunction directory         : /home/kee/wfu/
 Main file repository           : /scratch/kee/

 ARCHNAME  : Linux/x86_64
 FC        : /opt/intel/composer_xe_2015.0.090/bin/intel64/ifort
 FCVERSION : 15.0.0
 BLASLIB   : -L/opt/intel/mkl/lib/intel64 -lmkl_intel_ilp64 -lmkl_sequential -lmkl_core
 id        : emory

 Nodes     nprocs
 node23       3
 Number of processes for MPI-2 version of Molpro:   nprocs(total)=    4   nprocs(compute)=    3   nprocs(helper)=    1
 ga_uses_ma=false, calling ma_init with nominal heap.
 GA-space will be limited to   8.0 MW (determined by -G option)

 Using customized tuning parameters: mindgm=7; mindgv=32; mindgc=1; mindgr=1; noblas=0; mincuda=1000; minvec=7
 default implementation of scratch files=sf  

 ***,co2h2o
 memory,100,m
 basis avtz
 geomtype = xyz
 geometry = {
 6
    -264.76489694
 O     0.82869278    1.16169550    0.00000000
 O     0.82658011   -1.16233555    0.00000000
 O    -5.19123435    0.00205311    0.00000000
 H    -5.77486736    0.76264776    0.00000000
 H    -5.77459925   -0.75874881    0.00000000
 C     0.80876519   -0.00029961    0.00000000
 }
 hf
 ccsd(t)-f12
 ---

 Variables initialized (665), CPU time= 0.00 sec
 Commands  initialized (462), CPU time= 0.01 sec, 486 directives.
 Default parameters read. Elapsed time= 0.04 sec

 Checking input...
 Passed
1


                                         ***  PROGRAM SYSTEM MOLPRO  ***
                         Copyright, University College Cardiff Consultants Limited, 2008

                                    Version 2010.1 linked 9 Dec 2014 15:06:28 


 **********************************************************************************************************************************
 LABEL *   co2h2o                                                                        
 Linux-2.6.32-504.el6.x86_64/node23(x86_64) 64 bit mpp version                           DATE: 06-Dec-16          TIME: 23:59:59  
 **********************************************************************************************************************************

 Patch level:      19
 **********************************************************************************************************************************

 Variable memory set to  100000000 words,  buffer space   230000 words

 SETTING BASIS          =    AVTZ
 SETTING GEOMTYPE       =    XYZ

Geometry recognized as XYZ



 Recomputing integrals since basis changed


 Using spherical harmonics

 Library entry O      S aug-cc-pVTZ          selected for orbital group  1
 Library entry O      P aug-cc-pVTZ          selected for orbital group  1
 Library entry O      D aug-cc-pVTZ          selected for orbital group  1
 Library entry O      F aug-cc-pVTZ          selected for orbital group  1
 Library entry H      S aug-cc-pVTZ          selected for orbital group  2
 Library entry H      P aug-cc-pVTZ          selected for orbital group  2
 Library entry H      D aug-cc-pVTZ          selected for orbital group  2
 Library entry C      S aug-cc-pVTZ          selected for orbital group  3
 Library entry C      P aug-cc-pVTZ          selected for orbital group  3
 Library entry C      D aug-cc-pVTZ          selected for orbital group  3
 Library entry C      F aug-cc-pVTZ          selected for orbital group  3

1PROGRAM * SEWARD (Integral evaluation for generally contracted gaussian basis sets)     Author: Roland Lindh, 1990

 Geometry written to block  1 of record 700


 Point group  Cs  



 ATOMIC COORDINATES

 NR  ATOM    CHARGE       X              Y              Z

   1  O       8.00    1.566002401    2.195286343    0.000000000
   2  O       8.00    1.562010034   -2.196495862    0.000000000
   3  O       8.00   -9.810011206    0.003879816    0.000000000
   4  H       1.00  -10.912917756    1.441195401    0.000000000
   5  H       1.00  -10.912411101   -1.433827453    0.000000000
   6  C       6.00    1.528344714   -0.000566181    0.000000000

 Bond lengths in Bohr (Angstrom)

 1-6  2.196175405  2-6  2.196187724  3-4  1.811706088  3-5  1.811708509
     (1.162165971)     (1.162172490)     (0.958713571)     (0.958714852)

 Bond angles

  1-6-2  178.13918425   4-3-5  105.01947441

 NUCLEAR CHARGE:                   32
 NUMBER OF PRIMITIVE AOS:         322
 NUMBER OF SYMMETRY AOS:          282
 NUMBER OF CONTRACTIONS:          230   ( 152A'  +  78A"  )
 NUMBER OF CORE ORBITALS:           4   (   4A'  +   0A"  )
 NUMBER OF VALENCE ORBITALS:       18   (  14A'  +   4A"  )


 NUCLEAR REPULSION ENERGY   86.21671802


 Eigenvalues of metric

         1 0.347E-03 0.369E-03 0.391E-03 0.392E-03 0.898E-03 0.921E-03 0.166E-02 0.171E-02
         2 0.318E-02 0.348E-02 0.590E-02 0.124E-01 0.135E-01 0.290E-01 0.296E-01 0.315E-01


 Contracted 2-electron integrals neglected if value below      1.0D-11
 AO integral compression algorithm  1   Integral accuracy      1.0D-11

     391.381 MB (compressed) written to integral file ( 24.8%)

     Node minimum: 106.955 MB, node maximum: 158.335 MB


 NUMBER OF SORTED TWO-ELECTRON INTEGRALS:   59950380.     BUFFER LENGTH:  32768
 NUMBER OF SEGMENTS:   4  SEGMENT LENGTH:   15995235      RECORD LENGTH: 524288

 Memory used in sort:      16.55 MW

 SORT1 READ   197418737. AND WROTE    29059863. INTEGRALS IN     86 RECORDS. CPU TIME:     2.70 SEC, REAL TIME:     4.33 SEC
 SORT2 READ    87499321. AND WROTE   179836431. INTEGRALS IN   1812 RECORDS. CPU TIME:     1.08 SEC, REAL TIME:     1.39 SEC

 Node minimum:    59940574.  Node maximum:    59950380. integrals

 OPERATOR DM      FOR CENTER  0  COORDINATES:    0.000000    0.000000    0.000000


 **********************************************************************************************************************************
 DATASETS  * FILE   NREC   LENGTH (MB)   RECORD NAMES
              1      18        3.74       500      610      700      900      950      970     1000      129      960     1100   
                                          VAR    BASINP    GEOM    SYMINP    ZMAT    AOBASIS   BASIS     P2S    ABASIS      S 
                                         1400     1410     1200     1210     1080     1600     1650     1700   
                                           T        V       H0       H01     AOSYM     SMH    MOLCAS    OPER   

 PROGRAMS   *        TOTAL       INT
 CPU TIMES  *         8.02      7.92
 REAL TIME  *        10.30 SEC
 DISK USED  *         1.46 GB      
 GA USED    *         0.00 MB       (max)       0.00 MB       (current)
 **********************************************************************************************************************************

1PROGRAM * RHF-SCF (CLOSED SHELL)       Authors: W. Meyer, H.-J. Werner


 NUMBER OF ELECTRONS:      16+   16-
 CONVERGENCE THRESHOLDS:    1.00E-05 (Density)    1.00E-07 (Energy)
 MAX. NUMBER OF ITERATIONS:       60
 INTERPOLATION TYPE:            DIIS
 INTERPOLATION STEPS:              2 (START)      1 (STEP)
 LEVEL SHIFTS:                  0.00 (CLOSED)  0.00 (OPEN) 



 Orbital guess generated from atomic densities. Full valence occupancy:   18   4

 Molecular orbital dump at record        2100.2

 Initial alpha occupancy:  13   3
 Initial beta  occupancy:  13   3
 Wave function symmetry:    1

 ITERATION    DDIFF          GRAD             ENERGY        2-EL.EN.            DIPOLE MOMENTS         DIIS
    1      0.000D+00      0.000D+00      -263.66094164    368.156110   -1.18424   -0.00012    0.00000    0
    2      0.000D+00      0.629D-02      -263.72609414    363.524740   -0.69911   -0.00009    0.00000    1
    3      0.101D-01      0.427D-02      -263.76919242    366.092421   -0.81918   -0.00009    0.00000    2
    4      0.415D-02      0.402D-03      -263.76968741    365.882054   -0.82234   -0.00009    0.00000    3
    5      0.485D-03      0.117D-03      -263.76974540    365.883153   -0.81706   -0.00009    0.00000    4
    6      0.181D-03      0.473D-04      -263.76975259    365.897851   -0.81776   -0.00009    0.00000    5
    7      0.604D-04      0.115D-04      -263.76975331    365.889445   -0.81731   -0.00009    0.00000    6
    8      0.197D-04      0.254D-05      -263.76975336    365.890750   -0.81732   -0.00009    0.00000    7
    9      0.541D-05      0.851D-06      -263.76975337    365.890553   -0.81729   -0.00009    0.00000    0

 Final occupancy:  13   3

 !RHF STATE 1.1 Energy               -263.769753365365
 Nuclear energy                        86.21671802
 One-electron energy                 -532.93174793
 Two-electron energy                  182.94527655
 Virial quotient                       -1.00183172
 !RHF STATE 1.1 Dipole moment          -0.81729079    -0.00008950     0.00000000
 Dipole moment /Debye                  -2.07720992    -0.00022747     0.00000000

 Orbital energies:

         1.1          2.1          3.1          4.1          5.1          6.1          7.1          8.1          9.1         10.1
    -20.647849   -20.647804   -20.568653   -11.456699    -1.525511    -1.472427    -1.353906    -0.795837    -0.738111    -0.719430

        11.1         12.1         13.1         14.1         15.1
     -0.709484    -0.585246    -0.539203     0.028128     0.046990

         1.2          2.2          3.2          4.2          5.2
     -0.709607    -0.539276    -0.511555     0.077380     0.158685


 **********************************************************************************************************************************
 DATASETS  * FILE   NREC   LENGTH (MB)   RECORD NAMES
              1      18        3.76       500      610      700      900      950      970     1000      129      960     1100   
                                          VAR    BASINP    GEOM    SYMINP    ZMAT    AOBASIS   BASIS     P2S    ABASIS      S 
                                         1400     1410     1200     1210     1080     1600     1650     1700   
                                           T        V       H0       H01     AOSYM     SMH    MOLCAS    OPER   

              2       3        0.96       700     1000     2100   
                                         GEOM     BASIS     RHF  

 PROGRAMS   *        TOTAL        HF       INT
 CPU TIMES  *        12.20      4.19      7.92
 REAL TIME  *        14.67 SEC
 DISK USED  *         1.48 GB      
 SF USED    *         0.12 MB      
 GA USED    *         0.00 MB       (max)       0.00 MB       (current)
 **********************************************************************************************************************************


1PROGRAM * CCSD (Closed-shell coupled cluster)     Authors: C. Hampel, H.-J. Werner, 1991, M. Deegan, P.J. Knowles, 1992

                                  CCSD-F12 implementation by  H.-J. Werner, 2007

                   Density fitting integral evaluation by F.R. Manby, 2003,2007, G. Knizia, 2010

 Basis set CC-PVTZ/JKFIT generated.      Number of basis functions:   376 
 Basis set AUG-CC-PVTZ/MP2FIT generated. Number of basis functions:   516 

 Convergence thresholds:  THRVAR = 1.00D-08  THRDEN = 1.00D-06

 CCSD(T)     terms to be evaluated (factor= 1.000)


 Number of core orbitals:           4 (   4   0 )
 Number of closed-shell orbitals:  12 (   9   3 )
 Number of external orbitals:     214 ( 139  75 )

 Molecular orbitals read from record     2100.2  Type=RHF/CANONICAL (state 1.1)

 MP2-F12 correlation treatment (H.-J. Werner, 2006)
 --------------------------------------------------

 Using MP2-F12 with ansatz 3C(FIX)

 Using projected zeroth-order Hamiltonian (+Z)

 FOCKRIB=T FOCKRIC=T FOCKRIP=T CABSP=T CABSA=T CABSK=T CABSF=T GBC=F EBC=F DMAT=T NOFIK=T NOPAO=1 SOLVE=-1  USEPAO=0
 EXCH_A= T EXCH_B= F EXCH_C= F EXCH_P= F
 
 Geminal basis:    OPTFULL  GEM_TYPE=SLATER  BETA=1.0  NGEM=6

 Optimizing Gaussian exponents for each gem_beta

 Geminal optimization for beta= 1.0000
 Weight function:   m=0, omega= 1.4646

 Augmented Hessian optimization of geminal fit. Trust ratio= 0.40000
 Convergence reached after   2 iterations. Final gradient= 8.24D-16, Step= 4.32D-06, Delta= 1.28D-09
 
 Alpha:                 0.19532     0.81920     2.85917     9.50073    35.69989   197.79328
 Coeff:                 0.27070     0.30552     0.18297     0.10986     0.06810     0.04224
 

 Symmetry turned off. Reference energy:       -263.769753365365

 All pairs explicitly correlated. Number of r12-pairs:           78
 
 AO(A)-basis ORBITAL           loaded. Number of functions:     230
 RI(R)-basis CC-PVTZ/JKFIT     loaded. Number of functions:     376
 DF-basis CC-PVTZ/JKFIT        loaded. Number of functions:     376

 Screening thresholds:   THRAO=  1.00D-10  THRMO=  1.00D-09  THRPROD=  1.00D-09
                         THRSW=  1.00D-05  THROV=  1.00D-12  THRF12=   1.00D-08

 CPU time for Fock operators                      1.01 sec
 
 Construction of ABS:
 Smallest eigenvalue of S          2.57E-04  (threshold= 1.00E-08)
 Ratio eigmin/eigmax               1.83E-06  (threshold= 1.00E-09)
 Smallest eigenvalue of S kept     2.57E-04  (threshold= 2.57E-04, 0 functions deleted, 376 kept)
 
 Construction of CABS:
 Smallest eigenvalue of S          2.30E-08  (threshold= 1.00E-08)
 Ratio eigmin/eigmax               2.30E-08  (threshold= 1.00E-09)
 Smallest eigenvalue of S kept     2.30E-08  (threshold= 2.30E-08, 0 functions deleted, 376 kept)
 
 CPU time for CABS singles                        0.18 sec

 CABS-singles contribution of  -0.01592206 patched into reference energy.
 New reference energy        -263.78567542
 
 AO(A)-basis ORBITAL           loaded. Number of functions:     230
 RI(R)-basis CC-PVTZ/JKFIT     loaded. Number of functions:     376
 DF-basis AUG-CC-PVTZ/MP2FIT   loaded. Number of functions:     516

 Screening thresholds:   THRAO=  1.00D-10  THRMO=  1.00D-09  THRPROD=  1.00D-09
                         THRSW=  1.00D-05  THROV=  1.00D-12  THRF12=   1.00D-08

 CPU time for 3-index integral evaluation         2.37 sec
 CPU time for first  half transformation          0.37 sec ( 7449.7 MFLOP/sec)
 CPU time for second half transformation          0.01 sec (10818.8 MFLOP/sec)
 CPU time for sorting                             0.18 sec
 CPU time for fitting                             0.15 sec ( 9230.2 MFLOP/sec)
 CPU time for tilde quantities                    0.06 sec (32856.0 MFLOP/sec)
 CPU time for assembly                            0.95 sec (25528.7 MFLOP/sec)
 CPU time for tranop_f12                          1.15 sec (29398.1 MFLOP/sec)
 CPU time for f12 integrals (total)               7.70 sec
 F12-matrices built in  3 passes.
 F12-matrices built in  3 passes.
 F12-matrices built in  3 passes.
 F12-matrices built in  3 passes.
 FC-matrix built in  3 passes.
 CPU time for f12 matrices (total)                0.56 sec

 Diagonal F12 approximation with fixed coefficients:  TSING= 0.500,  TTRIP= 0.250 (scaled by -1/beta)

 DF-MP2-F12 energy corrections:
 ------------------------------
 Approx.                                    Singlet             Triplet             Total
 DF-MP2-F12/3*C(DX,FIX)                -0.097449038528     -0.016933379201     -0.114382417729
 DF-MP2-F12/3*C(FIX)                   -0.079866314547     -0.013395466597     -0.093261781144
 DF-MP2-F12/3C(FIX)                    -0.080226952940     -0.013418631774     -0.093645584714

 DF-MP2-F12 correlation energies:
 --------------------------------
 Approx.                                    Singlet             Triplet             Ecorr            Total Energy
 DF-MP2                                -0.537701556616     -0.343059843823     -0.880761400438   -264.666436822028
 DF-MP2-F12/3*C(DX,FIX)                -0.635150595144     -0.359993223023     -0.995143818167   -264.780819239757
 DF-MP2-F12/3*C(FIX)                   -0.617567871163     -0.356455310419     -0.974023181582   -264.759698603171
 DF-MP2-F12/3C(FIX)                    -0.617928509556     -0.356478475597     -0.974406985152   -264.760082406742

 SCS-DF-MP2 energies (F_SING= 1.20000  F_TRIP= 0.62222  F_PARALLEL= 0.33333):
 ----------------------------------------------------------------------------
 SCS-DF-MP2                            -0.858701326317   -264.644376747907
 SCS-DF-MP2-F12/3*C(DX,FIX)            -0.986176497387   -264.771851918977
 SCS-DF-MP2-F12/3*C(FIX)               -0.962875860767   -264.748551282356
 SCS-DF-MP2-F12/3C(FIX)                -0.963323040727   -264.748998462316

 Symmetry restored.
 Symmetry transformation completed.

 Number of N-1 electron functions:              12
 Number of N-2 electron functions:              78
 Number of singly external CSFs:              1476
 Number of doubly external CSFs:           1686804
 Total number of CSFs:                     1688281

 Pair and operator lists are different

 Length of J-op  integral file:             466.42 MB
 Length of K-op  integral file:             526.62 MB
 Length of 3-ext integral record:             0.00 MB

 Memory could be reduced to 76.61 Mwords without degradation in triples

 Integral transformation finished. Total CPU:   4.65 sec, npass=  1  Memory used:  24.61 MW

 Reference energy:                   -263.78567542

 Adding F12 terms to K(Cij), methodcc=6,  factor=1.0

 ITER.      SQ.NORM     CORR.ENERGY   TOTAL ENERGY   ENERGY CHANGE        DEN1      VAR(S)    VAR(P)  DIIS     TIME
   1      1.20212534    -0.86272174  -264.64839716     0.01805608     0.04667558  0.72D-02  0.56D-02  1  1    18.12
   2      1.21643290    -0.85849888  -264.64417431     0.00422285    -0.02014524  0.86D-04  0.59D-03  2  2    21.16
   3      1.22179263    -0.85859571  -264.64427113    -0.00009683    -0.00236396  0.13D-03  0.32D-04  3  3    24.18
   4      1.22459406    -0.85846800  -264.64414342     0.00012771    -0.00141111  0.76D-05  0.41D-05  4  4    27.21
   5      1.22562379    -0.85843033  -264.64410575     0.00003766    -0.00036623  0.56D-06  0.29D-06  5  5    30.31
   6      1.22578594    -0.85840347  -264.64407889     0.00002686    -0.00000805  0.40D-07  0.24D-07  6  6    33.39
   7      1.22581529    -0.85840105  -264.64407647     0.00000242    -0.00000621  0.25D-08  0.40D-08  6  4    36.43
   8      1.22581559    -0.85840056  -264.64407598     0.00000049     0.00000194  0.39D-09  0.27D-09  6  1    39.50
   9      1.22581620    -0.85840063  -264.64407605    -0.00000007     0.00000056  0.26D-10  0.21D-10  6  2    42.59

 Norm of t1 vector:      0.10595158      S-energy:    -0.00000003      T1 diagnostic:  0.01529279
                                                                       D1 diagnostic:  0.04496430

 Adding energy correction from Wij-K(Fij), methodcc=6  factor=1.0
 
  CCSD correlation energy              -0.858400626519
  MP2-F12 correction (uncoupled)       -0.092489626368
  C*T doubles correction               -0.001474941776
  f12b correction                       0.015406864242


 Total CPU time for triples:     80.57 sec


 RESULTS
 =======

  Reference energy                   -263.769753365365
  F12 singles correction               -0.015922056224

 F12 singles corrections added to reference energy

  New reference energy               -263.785675421589

  F12a singlet correction              -0.080427159413
  F12a triplet correction              -0.013537408732
  F12a total correction                -0.093964568144

 F12a corrections for ansatz F12/3C(FIX) added to CCSD energy
 
  CCSD-F12a singlet pair energy        -0.641865706042
  CCSD-F12a triplet pair energy        -0.310499463590
  CCSD-F12a correlation energy         -0.952365194663

  Triples (T) contribution             -0.037634745716
  Total correlation energy             -0.989999940379

  CCSD-F12a total energy             -264.738040616252
  CCSD[T]-F12a energy                -264.778217679763
  CCSD-T-F12a energy                 -264.774738441884
 !CCSD(T)-F12a total energy          -264.775675361968

 F12b corrections for ansatz F12/3C(FIX) added to CCSD(T)-F12a energy

  CCSD-F12b singlet pair energy        -0.627682214634
  CCSD-F12b triplet pair energy        -0.309276090755
  CCSD-F12b correlation energy         -0.936958330421

  Triples (T) contribution             -0.037634745716
  Total correlation energy             -0.974593076137

  CCSD-F12b total energy             -264.722633752010
  CCSD[T]-F12b energy                -264.762810815521
  CCSD-T-F12b energy                 -264.759331577642
 !CCSD(T)-F12b total energy          -264.760268497726

 Timing summary (sec):

 STEP                 CPU(USER)    SYS     CPU(TOT)    WALL
 Transformation          4.69      0.60      5.29      5.28
 CCSD iterations        27.85      1.68     29.53     30.12
 Triples                80.57      1.87     82.44     82.41
 MP2-F12                10.07      1.34     11.41     11.51
 F12b energy             1.94      0.03      1.97      2.01

 Program statistics:

 Available memory in ccsd:                99998934
 Min. memory needed in ccsd:               4458306
 Max. memory used in ccsd:                 5958390
 Max. memory used in cckext:               6352469 (10 integral passes)



 **********************************************************************************************************************************
 DATASETS  * FILE   NREC   LENGTH (MB)   RECORD NAMES
              1      20      269.66       500      610      700      900      950      970     1000      129      960     1100   
                                          VAR    BASINP    GEOM    SYMINP    ZMAT    AOBASIS   BASIS     P2S    ABASIS      S 
                                         1400     1410     1200     1210     1080     1600     1650     1700      960(1)  1380   
                                           T        V       H0       H01     AOSYM     SMH    MOLCAS    OPER    ABASIS    JKOP   

              2       5        1.55       700     1000     2100     7360     7350   
                                         GEOM     BASIS     RHF    F12ABS    EF12   

 PROGRAMS   *        TOTAL   CCSD(T)        HF       INT
 CPU TIMES  *       137.50    125.30      4.19      7.92
 REAL TIME  *       146.33 SEC
 DISK USED  *         1.92 GB      
 SF USED    *         1.53 GB      
 GA USED    *         2.40 MB       (max)       0.00 MB       (current)
 **********************************************************************************************************************************

     CCSD(T)-F12        HF-SCF  
   -264.76026850   -263.76975337
 **********************************************************************************************************************************
 Variable memory released
