
 Primary working directories    : /scratch/kee
 Secondary working directories  : /scratch/kee
 Wavefunction directory         : /home/kee/wfu/
 Main file repository           : /scratch/kee/

 ARCHNAME  : Linux/x86_64
 FC        : /opt/intel/composer_xe_2015.0.090/bin/intel64/ifort
 FCVERSION : 15.0.0
 BLASLIB   : -L/opt/intel/mkl/lib/intel64 -lmkl_intel_ilp64 -lmkl_sequential -lmkl_core
 id        : emory

 Nodes     nprocs
 node19       3
 Number of processes for MPI-2 version of Molpro:   nprocs(total)=    4   nprocs(compute)=    3   nprocs(helper)=    1
 ga_uses_ma=false, calling ma_init with nominal heap.
 GA-space will be limited to   8.0 MW (determined by -G option)

 Using customized tuning parameters: mindgm=7; mindgv=32; mindgc=1; mindgr=1; noblas=0; mincuda=1000; minvec=7
 default implementation of scratch files=sf  

 ***,co2h2o
 memory,100,m
 basis avtz
 geomtype = xyz
 geometry = {
 6
       0.00000000
 O     0.00351000    1.16210700    0.00000000
 O     0.00351000   -1.16210700    0.00000000
 O    16.16968000    0.00000000    0.00000000
 H    16.75589800    0.00000000    0.75853100
 H    16.75589800    0.00000000   -0.75853100
 C     0.01968000    0.00000000    0.00000000
 }
 hf
 ccsd(t)-f12
 ---

 Variables initialized (665), CPU time= 0.01 sec
 Commands  initialized (462), CPU time= 0.01 sec, 486 directives.
 Default parameters read. Elapsed time= 0.04 sec

 Checking input...
 Passed
1


                                         ***  PROGRAM SYSTEM MOLPRO  ***
                         Copyright, University College Cardiff Consultants Limited, 2008

                                    Version 2010.1 linked 9 Dec 2014 15:06:28 


 **********************************************************************************************************************************
 LABEL *   co2h2o                                                                        
 Linux-2.6.32-504.el6.x86_64/node19(x86_64) 64 bit mpp version                           DATE: 12-Dec-16          TIME: 14:23:08  
 **********************************************************************************************************************************

 Patch level:      19
 **********************************************************************************************************************************

 Variable memory set to  100000000 words,  buffer space   230000 words

 SETTING BASIS          =    AVTZ
 SETTING GEOMTYPE       =    XYZ

Geometry recognized as XYZ



 Recomputing integrals since basis changed


 Using spherical harmonics

 Library entry O      S aug-cc-pVTZ          selected for orbital group  1
 Library entry O      P aug-cc-pVTZ          selected for orbital group  1
 Library entry O      D aug-cc-pVTZ          selected for orbital group  1
 Library entry O      F aug-cc-pVTZ          selected for orbital group  1
 Library entry H      S aug-cc-pVTZ          selected for orbital group  2
 Library entry H      P aug-cc-pVTZ          selected for orbital group  2
 Library entry H      D aug-cc-pVTZ          selected for orbital group  2
 Library entry C      S aug-cc-pVTZ          selected for orbital group  3
 Library entry C      P aug-cc-pVTZ          selected for orbital group  3
 Library entry C      D aug-cc-pVTZ          selected for orbital group  3
 Library entry C      F aug-cc-pVTZ          selected for orbital group  3

1PROGRAM * SEWARD (Integral evaluation for generally contracted gaussian basis sets)     Author: Roland Lindh, 1990

 Geometry written to block  1 of record 700


 Point group  C2v 



 ATOMIC COORDINATES

 NR  ATOM    CHARGE       X              Y              Z

   1  O       8.00    0.006632939    2.196063965    0.000000000
   2  O       8.00    0.006632939   -2.196063965    0.000000000
   3  O       8.00   30.556266833    0.000000000    0.000000000
   4  H       1.00   31.664058306    0.000000000    1.433415852
   5  H       1.00   31.664058306    0.000000000   -1.433415852
   6  C       6.00    0.037189810    0.000000000    0.000000000

 Bond lengths in Bohr (Angstrom)

 1-6  2.196276545  2-6  2.196276545  3-4  1.811596797  3-5  1.811596797
     (1.162219492)     (1.162219492)     (0.958655737)     (0.958655737)

 Bond angles

  1-6-2  178.40563223   4-3-5  104.60391356

 NUCLEAR CHARGE:                   32
 NUMBER OF PRIMITIVE AOS:         322
 NUMBER OF SYMMETRY AOS:          282
 NUMBER OF CONTRACTIONS:          230   (  84A1  +  59B1  +  54B2  +  33A2  )
 NUMBER OF CORE ORBITALS:           4   (   3A1  +   1B1  +   0B2  +   0A2  )
 NUMBER OF VALENCE ORBITALS:       18   (   8A1  +   5B1  +   4B2  +   1A2  )


 NUCLEAR REPULSION ENERGY   74.60098326

 EXTRA SYMMETRY OF AOS IN SYMMETRY 4:   1 1 1 1 1 1 1 1 1 1   1 1 1 1 1 1 2 2 2 2   2 2 2 2 2 2 2 2 1 1   1 1 1

 Eigenvalues of metric

         1 0.385E-03 0.420E-03 0.903E-03 0.186E-02 0.317E-02 0.321E-02 0.405E-02 0.540E-02
         2 0.349E-03 0.922E-03 0.175E-02 0.348E-02 0.596E-02 0.744E-02 0.205E-01 0.216E-01
         3 0.394E-03 0.167E-02 0.318E-02 0.509E-02 0.622E-02 0.100E-01 0.136E-01 0.156E-01
         4 0.348E-02 0.124E-01 0.296E-01 0.363E-01 0.561E-01 0.679E-01 0.110E+00 0.139E+00


 Contracted 2-electron integrals neglected if value below      1.0D-11
 AO integral compression algorithm  1   Integral accuracy      1.0D-11

     126.878 MB (compressed) written to integral file ( 40.1%)

     Node minimum: 35.127 MB, node maximum: 46.137 MB


 NUMBER OF SORTED TWO-ELECTRON INTEGRALS:   29979201.     BUFFER LENGTH:  32768
 NUMBER OF SEGMENTS:   2  SEGMENT LENGTH:   15996954      RECORD LENGTH: 524288

 Memory used in sort:      16.55 MW

 SORT1 READ    39564345. AND WROTE     7661652. INTEGRALS IN     23 RECORDS. CPU TIME:     0.65 SEC, REAL TIME:     0.73 SEC
 SORT2 READ    22911442. AND WROTE    89930217. INTEGRALS IN    402 RECORDS. CPU TIME:     0.32 SEC, REAL TIME:     0.41 SEC

 Node minimum:    29974277.  Node maximum:    29979201. integrals

 OPERATOR DM      FOR CENTER  0  COORDINATES:    0.000000    0.000000    0.000000


 **********************************************************************************************************************************
 DATASETS  * FILE   NREC   LENGTH (MB)   RECORD NAMES
              1      18        3.23       500      610      700      900      950      970     1000      129      960     1100   
                                          VAR    BASINP    GEOM    SYMINP    ZMAT    AOBASIS   BASIS     P2S    ABASIS      S 
                                         1400     1410     1200     1210     1080     1600     1650     1700   
                                           T        V       H0       H01     AOSYM     SMH    MOLCAS    OPER   

 PROGRAMS   *        TOTAL       INT
 CPU TIMES  *         1.88      1.80
 REAL TIME  *         2.18 SEC
 DISK USED  *       404.81 MB      
 GA USED    *         0.00 MB       (max)       0.00 MB       (current)
 **********************************************************************************************************************************

1PROGRAM * RHF-SCF (CLOSED SHELL)       Authors: W. Meyer, H.-J. Werner


 NUMBER OF ELECTRONS:      16+   16-
 CONVERGENCE THRESHOLDS:    1.00E-05 (Density)    1.00E-07 (Energy)
 MAX. NUMBER OF ITERATIONS:       60
 INTERPOLATION TYPE:            DIIS
 INTERPOLATION STEPS:              2 (START)      1 (STEP)
 LEVEL SHIFTS:                  0.00 (CLOSED)  0.00 (OPEN) 



 Orbital guess generated from atomic densities. Full valence occupancy:   11   6   4   1

 Molecular orbital dump at record        2100.2

 Initial alpha occupancy:   8   5   2   1
 Initial beta  occupancy:   8   5   2   1
 Wave function symmetry:    1

 ITERATION    DDIFF          GRAD             ENERGY        2-EL.EN.            DIPOLE MOMENTS         DIIS
    1      0.000D+00      0.000D+00      -263.66016239    344.662297    1.18059    0.00000    0.00000    0
    2      0.000D+00      0.889D-02      -263.72548454    340.120177    0.67976    0.00000    0.00000    1
    3      0.143D-01      0.604D-02      -263.76888967    342.676787    0.80436    0.00000    0.00000    2
    4      0.588D-02      0.568D-03      -263.76938491    342.463333    0.80804    0.00000    0.00000    3
    5      0.694D-03      0.165D-03      -263.76944295    342.466559    0.80251    0.00000    0.00000    4
    6      0.258D-03      0.666D-04      -263.76945011    342.480809    0.80322    0.00000    0.00000    5
    7      0.854D-04      0.163D-04      -263.76945084    342.472526    0.80276    0.00000    0.00000    6
    8      0.280D-04      0.359D-05      -263.76945089    342.473824    0.80278    0.00000    0.00000    7
    9      0.768D-05      0.121D-05      -263.76945089    342.473636    0.80274    0.00000    0.00000    0

 Final occupancy:   8   5   2   1

 !RHF STATE 1.1 Energy               -263.769450891421
 Nuclear energy                        74.60098326
 One-electron energy                 -509.60725229
 Two-electron energy                  171.23681814
 Virial quotient                       -1.00182639
 !RHF STATE 1.1 Dipole moment           0.80274453     0.00000000     0.00000000
 Dipole moment /Debye                   2.04023944     0.00000000     0.00000000

 Orbital energies:

         1.1          2.1          3.1          4.1          5.1          6.1          7.1          8.1          9.1         10.1
    -20.652626   -20.567496   -11.461438    -1.530283    -1.352896    -0.800527    -0.714347    -0.584593     0.029353     0.048123

         1.2          2.2          3.2          4.2          5.2          6.2          7.2
    -20.652671    -1.477200    -0.742763    -0.543977    -0.510307     0.079644     0.158474

         1.3          2.3          3.3          4.3
     -0.717334    -0.714355     0.047598     0.073663

         1.4          2.4          3.4
     -0.543996     0.164536     0.265148


 **********************************************************************************************************************************
 DATASETS  * FILE   NREC   LENGTH (MB)   RECORD NAMES
              1      18        3.25       500      610      700      900      950      970     1000      129      960     1100   
                                          VAR    BASINP    GEOM    SYMINP    ZMAT    AOBASIS   BASIS     P2S    ABASIS      S 
                                         1400     1410     1200     1210     1080     1600     1650     1700   
                                           T        V       H0       H01     AOSYM     SMH    MOLCAS    OPER   

              2       3        0.67       700     1000     2100   
                                         GEOM     BASIS     RHF  

 PROGRAMS   *        TOTAL        HF       INT
 CPU TIMES  *         2.64      0.76      1.80
 REAL TIME  *         2.99 SEC
 DISK USED  *       422.20 MB      
 SF USED    *         0.06 MB      
 GA USED    *         0.00 MB       (max)       0.00 MB       (current)
 **********************************************************************************************************************************


1PROGRAM * CCSD (Closed-shell coupled cluster)     Authors: C. Hampel, H.-J. Werner, 1991, M. Deegan, P.J. Knowles, 1992

                                  CCSD-F12 implementation by  H.-J. Werner, 2007

                   Density fitting integral evaluation by F.R. Manby, 2003,2007, G. Knizia, 2010

 Basis set CC-PVTZ/JKFIT generated.      Number of basis functions:   376 
 Basis set AUG-CC-PVTZ/MP2FIT generated. Number of basis functions:   516 

 Convergence thresholds:  THRVAR = 1.00D-08  THRDEN = 1.00D-06

 CCSD(T)     terms to be evaluated (factor= 1.000)


 Number of core orbitals:           4 (   3   1   0   0 )
 Number of closed-shell orbitals:  12 (   5   4   2   1 )
 Number of external orbitals:     214 (  76  54  52  32 )

 Molecular orbitals read from record     2100.2  Type=RHF/CANONICAL (state 1.1)

 MP2-F12 correlation treatment (H.-J. Werner, 2006)
 --------------------------------------------------

 Using MP2-F12 with ansatz 3C(FIX)

 Using projected zeroth-order Hamiltonian (+Z)

 FOCKRIB=T FOCKRIC=T FOCKRIP=T CABSP=T CABSA=T CABSK=T CABSF=T GBC=F EBC=F DMAT=T NOFIK=T NOPAO=1 SOLVE=-1  USEPAO=0
 EXCH_A= T EXCH_B= F EXCH_C= F EXCH_P= F
 
 Geminal basis:    OPTFULL  GEM_TYPE=SLATER  BETA=1.0  NGEM=6

 Optimizing Gaussian exponents for each gem_beta

 Geminal optimization for beta= 1.0000
 Weight function:   m=0, omega= 1.4646

 Augmented Hessian optimization of geminal fit. Trust ratio= 0.40000
 Convergence reached after   2 iterations. Final gradient= 8.24D-16, Step= 4.32D-06, Delta= 1.28D-09
 
 Alpha:                 0.19532     0.81920     2.85917     9.50073    35.69989   197.79328
 Coeff:                 0.27070     0.30552     0.18297     0.10986     0.06810     0.04224
 

 Symmetry turned off. Reference energy:       -263.769450891421

 All pairs explicitly correlated. Number of r12-pairs:           78
 
 AO(A)-basis ORBITAL           loaded. Number of functions:     230
 RI(R)-basis CC-PVTZ/JKFIT     loaded. Number of functions:     376
 DF-basis CC-PVTZ/JKFIT        loaded. Number of functions:     376

 Screening thresholds:   THRAO=  1.00D-10  THRMO=  1.00D-09  THRPROD=  1.00D-09
                         THRSW=  1.00D-05  THROV=  1.00D-12  THRF12=   1.00D-08

 CPU time for Fock operators                      0.74 sec
 
 Construction of ABS:
 Smallest eigenvalue of S          2.57E-04  (threshold= 1.00E-08)
 Ratio eigmin/eigmax               1.83E-06  (threshold= 1.00E-09)
 Smallest eigenvalue of S kept     2.57E-04  (threshold= 2.57E-04, 0 functions deleted, 376 kept)
 
 Construction of CABS:
 Smallest eigenvalue of S          2.30E-08  (threshold= 1.00E-08)
 Ratio eigmin/eigmax               2.30E-08  (threshold= 1.00E-09)
 Smallest eigenvalue of S kept     2.30E-08  (threshold= 2.30E-08, 0 functions deleted, 376 kept)
 
 CPU time for CABS singles                        0.14 sec

 CABS-singles contribution of  -0.01592475 patched into reference energy.
 New reference energy        -263.78537565
 
 AO(A)-basis ORBITAL           loaded. Number of functions:     230
 RI(R)-basis CC-PVTZ/JKFIT     loaded. Number of functions:     376
 DF-basis AUG-CC-PVTZ/MP2FIT   loaded. Number of functions:     516

 Screening thresholds:   THRAO=  1.00D-10  THRMO=  1.00D-09  THRPROD=  1.00D-09
                         THRSW=  1.00D-05  THROV=  1.00D-12  THRF12=   1.00D-08

 CPU time for 3-index integral evaluation         1.18 sec
 CPU time for first  half transformation          0.13 sec ( 7416.8 MFLOP/sec)
 CPU time for second half transformation          0.02 sec ( 2906.8 MFLOP/sec)
 CPU time for sorting                             0.04 sec
 CPU time for fitting                             0.04 sec (34826.3 MFLOP/sec)
 CPU time for tilde quantities                    0.07 sec (26412.6 MFLOP/sec)
 CPU time for assembly                            0.66 sec (35791.9 MFLOP/sec)
 CPU time for tranop_f12                          0.83 sec (36449.0 MFLOP/sec)
 CPU time for f12 integrals (total)               4.77 sec
 F12-matrices built in  3 passes.
 F12-matrices built in  3 passes.
 F12-matrices built in  3 passes.
 F12-matrices built in  3 passes.
 FC-matrix built in  3 passes.
 CPU time for f12 matrices (total)                0.42 sec

 Diagonal F12 approximation with fixed coefficients:  TSING= 0.500,  TTRIP= 0.250 (scaled by -1/beta)

 DF-MP2-F12 energy corrections:
 ------------------------------
 Approx.                                    Singlet             Triplet             Total
 DF-MP2-F12/3*C(DX,FIX)                -0.097450892142     -0.016933929695     -0.114384821837
 DF-MP2-F12/3*C(FIX)                   -0.079865532722     -0.013395977621     -0.093261510343
 DF-MP2-F12/3C(FIX)                    -0.080226648314     -0.013419293335     -0.093645941649

 DF-MP2-F12 correlation energies:
 --------------------------------
 Approx.                                    Singlet             Triplet             Ecorr            Total Energy
 DF-MP2                                -0.537749290006     -0.343086632327     -0.880835922333   -264.666211567652
 DF-MP2-F12/3*C(DX,FIX)                -0.635200182148     -0.360020562022     -0.995220744171   -264.780596389490
 DF-MP2-F12/3*C(FIX)                   -0.617614822728     -0.356482609949     -0.974097432677   -264.759473077996
 DF-MP2-F12/3C(FIX)                    -0.617975938320     -0.356505925662     -0.974481863982   -264.759857509301

 SCS-DF-MP2 energies (F_SING= 1.20000  F_TRIP= 0.62222  F_PARALLEL= 0.33333):
 ----------------------------------------------------------------------------
 SCS-DF-MP2                            -0.858775274789   -264.644150920108
 SCS-DF-MP2-F12/3*C(DX,FIX)            -0.986253012725   -264.771628658044
 SCS-DF-MP2-F12/3*C(FIX)               -0.962949189020   -264.748324834339
 SCS-DF-MP2-F12/3C(FIX)                -0.963397035285   -264.748772680604

 Symmetry restored.
 Symmetry transformation completed.

 Number of N-1 electron functions:              12
 Number of N-2 electron functions:              78
 Number of singly external CSFs:               732
 Number of doubly external CSFs:            836016
 Total number of CSFs:                      836749

 Pair and operator lists are different

 Length of J-op  integral file:             462.26 MB
 Length of K-op  integral file:             502.03 MB
 Length of 3-ext integral record:             0.00 MB

 Memory could be reduced to 38.69 Mwords without degradation in triples

 Integral transformation finished. Total CPU:   1.12 sec, npass=  1  Memory used:   6.07 MW

 Reference energy:                   -263.78537565

 Adding F12 terms to K(Cij), methodcc=6,  factor=1.0

 ITER.      SQ.NORM     CORR.ENERGY   TOTAL ENERGY   ENERGY CHANGE        DEN1      VAR(S)    VAR(P)  DIIS     TIME
   1      1.20216503    -0.86278218  -264.64815782     0.01807018     0.04670984  0.72D-02  0.56D-02  1  1     8.24
   2      1.21648073    -0.85855325  -264.64392890     0.00422892    -0.02015698  0.86D-04  0.59D-03  2  2     8.98
   3      1.22184247    -0.85864925  -264.64402489    -0.00009599    -0.00236442  0.13D-03  0.32D-04  3  3     9.71
   4      1.22464495    -0.85852129  -264.64389694     0.00012796    -0.00141159  0.76D-05  0.41D-05  4  4    10.45
   5      1.22567521    -0.85848357  -264.64385922     0.00003772    -0.00036650  0.55D-06  0.29D-06  5  5    11.19
   6      1.22583739    -0.85845671  -264.64383236     0.00002686    -0.00000805  0.40D-07  0.24D-07  6  6    11.94
   7      1.22586674    -0.85845429  -264.64382993     0.00000242    -0.00000622  0.25D-08  0.40D-08  6  4    12.69
   8      1.22586704    -0.85845380  -264.64382944     0.00000049     0.00000195  0.39D-09  0.27D-09  6  1    13.44
   9      1.22586765    -0.85845386  -264.64382951    -0.00000007     0.00000056  0.25D-10  0.21D-10  6  2    14.19

 Norm of t1 vector:      0.10597446      S-energy:    -0.00000003      T1 diagnostic:  0.01529610
                                                                       D1 diagnostic:  0.04494544

 Adding energy correction from Wij-K(Fij), methodcc=6  factor=1.0
 
  CCSD correlation energy              -0.858453863019
  MP2-F12 correction (uncoupled)       -0.092488520341
  C*T doubles correction               -0.001476022639
  f12b correction                       0.015406916324


 Total CPU time for triples:     19.93 sec


 RESULTS
 =======

  Reference energy                   -263.769450891421
  F12 singles correction               -0.015924753898

 F12 singles corrections added to reference energy

  New reference energy               -263.785375645319

  F12a singlet correction              -0.080426661408
  F12a triplet correction              -0.013537881573
  F12a total correction                -0.093964542980

 F12a corrections for ansatz F12/3C(FIX) added to CCSD energy
 
  CCSD-F12a singlet pair energy        -0.641913059057
  CCSD-F12a triplet pair energy        -0.310505320108
  CCSD-F12a correlation energy         -0.952418405999

  Triples (T) contribution             -0.037643241815
  Total correlation energy             -0.990061647815

  CCSD-F12a total energy             -264.737794051318
  CCSD[T]-F12a energy                -264.777981781657
  CCSD-T-F12a energy                 -264.774499346762
 !CCSD(T)-F12a total energy          -264.775437293134

 F12b corrections for ansatz F12/3C(FIX) added to CCSD(T)-F12a energy

  CCSD-F12b singlet pair energy        -0.627729424506
  CCSD-F12b triplet pair energy        -0.309282038335
  CCSD-F12b correlation energy         -0.937011489675

  Triples (T) contribution             -0.037643241815
  Total correlation energy             -0.974654731490

  CCSD-F12b total energy             -264.722387134994
  CCSD[T]-F12b energy                -264.762574865333
  CCSD-T-F12b energy                 -264.759092430438
 !CCSD(T)-F12b total energy          -264.760030376809

 Timing summary (sec):

 STEP                 CPU(USER)    SYS     CPU(TOT)    WALL
 Transformation          1.13      0.22      1.35      1.35
 CCSD iterations         6.64      0.51      7.15      7.16
 Triples                19.93      0.68     20.61     20.60
 MP2-F12                 6.42      0.87      7.29      7.29
 F12b energy             0.42      0.01      0.43      0.43

 Program statistics:

 Available memory in ccsd:                99998934
 Min. memory needed in ccsd:               2244783
 Max. memory used in ccsd:                 3005571
 Max. memory used in cckext:               2769663 (10 integral passes)



 **********************************************************************************************************************************
 DATASETS  * FILE   NREC   LENGTH (MB)   RECORD NAMES
              1      20      137.19       500      610      700      900      950      970     1000      129      960     1100   
                                          VAR    BASINP    GEOM    SYMINP    ZMAT    AOBASIS   BASIS     P2S    ABASIS      S 
                                         1400     1410     1200     1210     1080     1600     1650     1700      960(1)  1380   
                                           T        V       H0       H01     AOSYM     SMH    MOLCAS    OPER    ABASIS    JKOP   

              2       5        0.97       700     1000     2100     7360     7350   
                                         GEOM     BASIS     RHF    F12ABS    EF12   

 PROGRAMS   *        TOTAL   CCSD(T)        HF       INT
 CPU TIMES  *        37.38     34.73      0.76      1.80
 REAL TIME  *        40.04 SEC
 DISK USED  *       643.87 MB      
 SF USED    *         1.33 GB      
 GA USED    *         2.40 MB       (max)       0.00 MB       (current)
 **********************************************************************************************************************************

     CCSD(T)-F12        HF-SCF  
   -264.76003038   -263.76945089
 **********************************************************************************************************************************
 Variable memory released
