
 Primary working directories    : /scratch/kee
 Secondary working directories  : /scratch/kee
 Wavefunction directory         : /home/kee/wfu/
 Main file repository           : /scratch/kee/

 ARCHNAME  : Linux/x86_64
 FC        : /opt/intel/composer_xe_2015.0.090/bin/intel64/ifort
 FCVERSION : 15.0.0
 BLASLIB   : -L/opt/intel/mkl/lib/intel64 -lmkl_intel_ilp64 -lmkl_sequential -lmkl_core
 id        : emory

 Nodes     nprocs
 node21       3
 Number of processes for MPI-2 version of Molpro:   nprocs(total)=    4   nprocs(compute)=    3   nprocs(helper)=    1
 ga_uses_ma=false, calling ma_init with nominal heap.
 GA-space will be limited to   8.0 MW (determined by -G option)

 Using customized tuning parameters: mindgm=7; mindgv=32; mindgc=1; mindgr=1; noblas=0; mincuda=1000; minvec=7
 default implementation of scratch files=sf  

 ***,co2h2o
 memory,100,m
 basis avtz
 geomtype = xyz
 geometry = {
 6
       0.00000000
 O     0.01288800    1.16233300    0.00000000
 O     0.01288800   -1.16233300    0.00000000
 O     7.05363900    0.00000000    0.00000000
 H     6.47249900    0.76306800    0.00000000
 H     6.47249900   -0.76306800    0.00000000
 C     0.00363900    0.00000000    0.00000000
 }
 hf
 ccsd(t)-f12
 ---

 Variables initialized (665), CPU time= 0.01 sec
 Commands  initialized (462), CPU time= 0.01 sec, 486 directives.
 Default parameters read. Elapsed time= 0.03 sec

 Checking input...
 Passed
1


                                         ***  PROGRAM SYSTEM MOLPRO  ***
                         Copyright, University College Cardiff Consultants Limited, 2008

                                    Version 2010.1 linked 9 Dec 2014 15:06:28 


 **********************************************************************************************************************************
 LABEL *   co2h2o                                                                        
 Linux-2.6.32-504.el6.x86_64/node21(x86_64) 64 bit mpp version                           DATE: 15-Dec-16          TIME: 00:17:59  
 **********************************************************************************************************************************

 Patch level:      19
 **********************************************************************************************************************************

 Variable memory set to  100000000 words,  buffer space   230000 words

 SETTING BASIS          =    AVTZ
 SETTING GEOMTYPE       =    XYZ

Geometry recognized as XYZ



 Recomputing integrals since basis changed


 Using spherical harmonics

 Library entry O      S aug-cc-pVTZ          selected for orbital group  1
 Library entry O      P aug-cc-pVTZ          selected for orbital group  1
 Library entry O      D aug-cc-pVTZ          selected for orbital group  1
 Library entry O      F aug-cc-pVTZ          selected for orbital group  1
 Library entry H      S aug-cc-pVTZ          selected for orbital group  2
 Library entry H      P aug-cc-pVTZ          selected for orbital group  2
 Library entry H      D aug-cc-pVTZ          selected for orbital group  2
 Library entry C      S aug-cc-pVTZ          selected for orbital group  3
 Library entry C      P aug-cc-pVTZ          selected for orbital group  3
 Library entry C      D aug-cc-pVTZ          selected for orbital group  3
 Library entry C      F aug-cc-pVTZ          selected for orbital group  3

1PROGRAM * SEWARD (Integral evaluation for generally contracted gaussian basis sets)     Author: Roland Lindh, 1990

 Geometry written to block  1 of record 700


 Point group  C2v 



 ATOMIC COORDINATES

 NR  ATOM    CHARGE       X              Y              Z

   1  O       8.00    0.024354790    2.196491044    0.000000000
   2  O       8.00    0.024354790   -2.196491044    0.000000000
   3  O       8.00   13.329445940    0.000000000    0.000000000
   4  H       1.00   12.231250496    1.441989540    0.000000000
   5  H       1.00   12.231250496   -1.441989540    0.000000000
   6  C       6.00    0.006876713    0.000000000    0.000000000

 Bond lengths in Bohr (Angstrom)

 1-6  2.196560581  2-6  2.196560581  3-4  1.812558155  3-5  1.812558155
     (1.162369798)     (1.162369798)     (0.959164466)     (0.959164466)

 Bond angles

  1-6-2  179.08818302   4-3-5  105.41539946

 NUCLEAR CHARGE:                   32
 NUMBER OF PRIMITIVE AOS:         322
 NUMBER OF SYMMETRY AOS:          282
 NUMBER OF CONTRACTIONS:          230   (  84A1  +  68B1  +  45B2  +  33A2  )
 NUMBER OF CORE ORBITALS:           4   (   3A1  +   1B1  +   0B2  +   0A2  )
 NUMBER OF VALENCE ORBITALS:       18   (   8A1  +   6B1  +   3B2  +   1A2  )


 NUCLEAR REPULSION ENERGY   84.08148564


 Eigenvalues of metric

         1 0.375E-03 0.399E-03 0.901E-03 0.183E-02 0.317E-02 0.321E-02 0.404E-02 0.504E-02
         2 0.347E-03 0.389E-03 0.922E-03 0.165E-02 0.175E-02 0.343E-02 0.511E-02 0.626E-02
         3 0.318E-02 0.594E-02 0.136E-01 0.296E-01 0.319E-01 0.365E-01 0.590E-01 0.641E-01
         4 0.348E-02 0.124E-01 0.296E-01 0.362E-01 0.561E-01 0.680E-01 0.111E+00 0.140E+00


 Contracted 2-electron integrals neglected if value below      1.0D-11
 AO integral compression algorithm  1   Integral accuracy      1.0D-11

     204.210 MB (compressed) written to integral file ( 24.4%)

     Node minimum: 64.750 MB, node maximum: 73.925 MB


 NUMBER OF SORTED TWO-ELECTRON INTEGRALS:   30156294.     BUFFER LENGTH:  32768
 NUMBER OF SEGMENTS:   2  SEGMENT LENGTH:   15999663      RECORD LENGTH: 524288

 Memory used in sort:      16.56 MW

 SORT1 READ   104856730. AND WROTE    13211243. INTEGRALS IN     39 RECORDS. CPU TIME:     1.72 SEC, REAL TIME:     1.90 SEC
 SORT2 READ    39951665. AND WROTE    90461370. INTEGRALS IN    846 RECORDS. CPU TIME:     0.46 SEC, REAL TIME:     0.61 SEC

 Node minimum:    30151286.  Node maximum:    30156294. integrals

 OPERATOR DM      FOR CENTER  0  COORDINATES:    0.000000    0.000000    0.000000


 **********************************************************************************************************************************
 DATASETS  * FILE   NREC   LENGTH (MB)   RECORD NAMES
              1      18        3.24       500      610      700      900      950      970     1000      129      960     1100   
                                          VAR    BASINP    GEOM    SYMINP    ZMAT    AOBASIS   BASIS     P2S    ABASIS      S 
                                         1400     1410     1200     1210     1080     1600     1650     1700   
                                           T        V       H0       H01     AOSYM     SMH    MOLCAS    OPER   

 PROGRAMS   *        TOTAL       INT
 CPU TIMES  *         4.04      3.96
 REAL TIME  *         4.44 SEC
 DISK USED  *       679.44 MB      
 GA USED    *         0.00 MB       (max)       0.00 MB       (current)
 **********************************************************************************************************************************

1PROGRAM * RHF-SCF (CLOSED SHELL)       Authors: W. Meyer, H.-J. Werner


 NUMBER OF ELECTRONS:      16+   16-
 CONVERGENCE THRESHOLDS:    1.00E-05 (Density)    1.00E-07 (Energy)
 MAX. NUMBER OF ITERATIONS:       60
 INTERPOLATION TYPE:            DIIS
 INTERPOLATION STEPS:              2 (START)      1 (STEP)
 LEVEL SHIFTS:                  0.00 (CLOSED)  0.00 (OPEN) 



 Orbital guess generated from atomic densities. Full valence occupancy:   11   7   3   1

 Molecular orbital dump at record        2100.2

 Initial alpha occupancy:   8   5   2   1
 Initial beta  occupancy:   8   5   2   1
 Wave function symmetry:    1

 ITERATION    DDIFF          GRAD             ENERGY        2-EL.EN.            DIPOLE MOMENTS         DIIS
    1      0.000D+00      0.000D+00      -263.65997738    363.285795   -1.15218    0.00000    0.00000    0
    2      0.000D+00      0.882D-02      -263.72526320    358.891305   -0.67960    0.00000    0.00000    1
    3      0.142D-01      0.600D-02      -263.76879847    361.411513   -0.79478    0.00000    0.00000    2
    4      0.584D-02      0.563D-03      -263.76929411    361.196313   -0.79849    0.00000    0.00000    3
    5      0.690D-03      0.164D-03      -263.76935215    361.201267   -0.79309    0.00000    0.00000    4
    6      0.256D-03      0.659D-04      -263.76935929    361.215288   -0.79382    0.00000    0.00000    5
    7      0.847D-04      0.162D-04      -263.76936002    361.207114   -0.79336    0.00000    0.00000    6
    8      0.278D-04      0.356D-05      -263.76936007    361.208408   -0.79336    0.00000    0.00000    7
    9      0.762D-05      0.119D-05      -263.76936007    361.208232   -0.79333    0.00000    0.00000    0

 Final occupancy:   8   5   2   1

 !RHF STATE 1.1 Energy               -263.769360071393
 Nuclear energy                        84.08148564
 One-electron energy                 -528.45496178
 Two-electron energy                  180.60411607
 Virial quotient                       -1.00184444
 !RHF STATE 1.1 Dipole moment          -0.79333130     0.00000000     0.00000000
 Dipole moment /Debye                  -2.01631496     0.00000000     0.00000000

 Orbital energies:

         1.1          2.1          3.1          4.1          5.1          6.1          7.1          8.1          9.1         10.1
    -20.657695   -20.567912   -11.466518    -1.535219    -1.352730    -0.805519    -0.719358    -0.583549     0.024989     0.049394

         1.2          2.2          3.2          4.2          5.2          6.2          7.2
    -20.657741    -1.482163    -0.747711    -0.719278    -0.549015     0.046448     0.079705

         1.3          2.3          3.3          4.3
     -0.719293    -0.510683     0.069213     0.158059

         1.4          2.4          3.4
     -0.548980     0.160239     0.264320


 **********************************************************************************************************************************
 DATASETS  * FILE   NREC   LENGTH (MB)   RECORD NAMES
              1      18        3.25       500      610      700      900      950      970     1000      129      960     1100   
                                          VAR    BASINP    GEOM    SYMINP    ZMAT    AOBASIS   BASIS     P2S    ABASIS      S 
                                         1400     1410     1200     1210     1080     1600     1650     1700   
                                           T        V       H0       H01     AOSYM     SMH    MOLCAS    OPER   

              2       3        0.68       700     1000     2100   
                                         GEOM     BASIS     RHF  

 PROGRAMS   *        TOTAL        HF       INT
 CPU TIMES  *         5.24      1.20      3.96
 REAL TIME  *         5.71 SEC
 DISK USED  *       696.95 MB      
 SF USED    *         0.06 MB      
 GA USED    *         0.00 MB       (max)       0.00 MB       (current)
 **********************************************************************************************************************************


1PROGRAM * CCSD (Closed-shell coupled cluster)     Authors: C. Hampel, H.-J. Werner, 1991, M. Deegan, P.J. Knowles, 1992

                                  CCSD-F12 implementation by  H.-J. Werner, 2007

                   Density fitting integral evaluation by F.R. Manby, 2003,2007, G. Knizia, 2010

 Basis set CC-PVTZ/JKFIT generated.      Number of basis functions:   376 
 Basis set AUG-CC-PVTZ/MP2FIT generated. Number of basis functions:   516 

 Convergence thresholds:  THRVAR = 1.00D-08  THRDEN = 1.00D-06

 CCSD(T)     terms to be evaluated (factor= 1.000)


 Number of core orbitals:           4 (   3   1   0   0 )
 Number of closed-shell orbitals:  12 (   5   4   2   1 )
 Number of external orbitals:     214 (  76  63  43  32 )

 Molecular orbitals read from record     2100.2  Type=RHF/CANONICAL (state 1.1)

 MP2-F12 correlation treatment (H.-J. Werner, 2006)
 --------------------------------------------------

 Using MP2-F12 with ansatz 3C(FIX)

 Using projected zeroth-order Hamiltonian (+Z)

 FOCKRIB=T FOCKRIC=T FOCKRIP=T CABSP=T CABSA=T CABSK=T CABSF=T GBC=F EBC=F DMAT=T NOFIK=T NOPAO=1 SOLVE=-1  USEPAO=0
 EXCH_A= T EXCH_B= F EXCH_C= F EXCH_P= F
 
 Geminal basis:    OPTFULL  GEM_TYPE=SLATER  BETA=1.0  NGEM=6

 Optimizing Gaussian exponents for each gem_beta

 Geminal optimization for beta= 1.0000
 Weight function:   m=0, omega= 1.4646

 Augmented Hessian optimization of geminal fit. Trust ratio= 0.40000
 Convergence reached after   2 iterations. Final gradient= 8.24D-16, Step= 4.32D-06, Delta= 1.28D-09
 
 Alpha:                 0.19532     0.81920     2.85917     9.50073    35.69989   197.79328
 Coeff:                 0.27070     0.30552     0.18297     0.10986     0.06810     0.04224
 

 Symmetry turned off. Reference energy:       -263.769360071393

 All pairs explicitly correlated. Number of r12-pairs:           78
 
 AO(A)-basis ORBITAL           loaded. Number of functions:     230
 RI(R)-basis CC-PVTZ/JKFIT     loaded. Number of functions:     376
 DF-basis CC-PVTZ/JKFIT        loaded. Number of functions:     376

 Screening thresholds:   THRAO=  1.00D-10  THRMO=  1.00D-09  THRPROD=  1.00D-09
                         THRSW=  1.00D-05  THROV=  1.00D-12  THRF12=   1.00D-08

 CPU time for Fock operators                      0.88 sec
 
 Construction of ABS:
 Smallest eigenvalue of S          2.57E-04  (threshold= 1.00E-08)
 Ratio eigmin/eigmax               1.83E-06  (threshold= 1.00E-09)
 Smallest eigenvalue of S kept     2.57E-04  (threshold= 2.57E-04, 0 functions deleted, 376 kept)
 
 Construction of CABS:
 Smallest eigenvalue of S          2.30E-08  (threshold= 1.00E-08)
 Ratio eigmin/eigmax               2.30E-08  (threshold= 1.00E-09)
 Smallest eigenvalue of S kept     2.30E-08  (threshold= 2.30E-08, 0 functions deleted, 376 kept)
 
 CPU time for CABS singles                        0.15 sec

 CABS-singles contribution of  -0.01592227 patched into reference energy.
 New reference energy        -263.78528234
 
 AO(A)-basis ORBITAL           loaded. Number of functions:     230
 RI(R)-basis CC-PVTZ/JKFIT     loaded. Number of functions:     376
 DF-basis AUG-CC-PVTZ/MP2FIT   loaded. Number of functions:     516

 Screening thresholds:   THRAO=  1.00D-10  THRMO=  1.00D-09  THRPROD=  1.00D-09
                         THRSW=  1.00D-05  THROV=  1.00D-12  THRF12=   1.00D-08

 CPU time for 3-index integral evaluation         1.86 sec
 CPU time for first  half transformation          0.21 sec (12794.3 MFLOP/sec)
 CPU time for second half transformation          0.02 sec ( 5393.8 MFLOP/sec)
 CPU time for sorting                             0.11 sec
 CPU time for fitting                             0.05 sec (27861.0 MFLOP/sec)
 CPU time for tilde quantities                    0.05 sec (36977.6 MFLOP/sec)
 CPU time for assembly                            0.79 sec (29321.7 MFLOP/sec)
 CPU time for tranop_f12                          0.85 sec (34531.7 MFLOP/sec)
 CPU time for f12 integrals (total)               5.95 sec
 F12-matrices built in  3 passes.
 F12-matrices built in  3 passes.
 F12-matrices built in  3 passes.
 F12-matrices built in  3 passes.
 FC-matrix built in  3 passes.
 CPU time for f12 matrices (total)                0.49 sec

 Diagonal F12 approximation with fixed coefficients:  TSING= 0.500,  TTRIP= 0.250 (scaled by -1/beta)

 DF-MP2-F12 energy corrections:
 ------------------------------
 Approx.                                    Singlet             Triplet             Total
 DF-MP2-F12/3*C(DX,FIX)                -0.097445669214     -0.016931952954     -0.114377622169
 DF-MP2-F12/3*C(FIX)                   -0.079864385461     -0.013394900952     -0.093259286413
 DF-MP2-F12/3C(FIX)                    -0.080225421053     -0.013418000032     -0.093643421086

 DF-MP2-F12 correlation energies:
 --------------------------------
 Approx.                                    Singlet             Triplet             Ecorr            Total Energy
 DF-MP2                                -0.537783180282     -0.343121677108     -0.880904857390   -264.666187201313
 DF-MP2-F12/3*C(DX,FIX)                -0.635228849497     -0.360053630062     -0.995282479559   -264.780564823482
 DF-MP2-F12/3*C(FIX)                   -0.617647565743     -0.356516578059     -0.974164143803   -264.759446487726
 DF-MP2-F12/3C(FIX)                    -0.618008601336     -0.356539677140     -0.974548278476   -264.759830622399

 SCS-DF-MP2 energies (F_SING= 1.20000  F_TRIP= 0.62222  F_PARALLEL= 0.33333):
 ----------------------------------------------------------------------------
 SCS-DF-MP2                            -0.858837748761   -264.644120092684
 SCS-DF-MP2-F12/3*C(DX,FIX)            -0.986307989212   -264.771590333135
 SCS-DF-MP2-F12/3*C(FIX)               -0.963009616351   -264.748291960274
 SCS-DF-MP2-F12/3C(FIX)                -0.963457231823   -264.748739575746

 Symmetry restored.
 Symmetry transformation completed.

 Number of N-1 electron functions:              12
 Number of N-2 electron functions:              78
 Number of singly external CSFs:               750
 Number of doubly external CSFs:            844332
 Total number of CSFs:                      845083

 Pair and operator lists are different

 Length of J-op  integral file:             462.28 MB
 Length of K-op  integral file:             502.25 MB
 Length of 3-ext integral record:             0.00 MB

 Memory could be reduced to 38.71 Mwords without degradation in triples

 Integral transformation finished. Total CPU:   1.50 sec, npass=  1  Memory used:   7.09 MW

 Reference energy:                   -263.78528234

 Adding F12 terms to K(Cij), methodcc=6,  factor=1.0

 ITER.      SQ.NORM     CORR.ENERGY   TOTAL ENERGY   ENERGY CHANGE        DEN1      VAR(S)    VAR(P)  DIIS     TIME
   1      1.20221111    -0.86283485  -264.64811719     0.01808645     0.04674190  0.72D-02  0.56D-02  1  1    10.25
   2      1.21653508    -0.85860224  -264.64388458     0.00423261    -0.02016681  0.86D-04  0.59D-03  2  2    11.17
   3      1.22190044    -0.85869830  -264.64398065    -0.00009607    -0.00236541  0.13D-03  0.32D-04  3  3    12.08
   4      1.22470486    -0.85857012  -264.64385247     0.00012818    -0.00141227  0.76D-05  0.41D-05  4  4    12.99
   5      1.22573628    -0.85853236  -264.64381470     0.00003776    -0.00036683  0.56D-06  0.29D-06  5  5    13.90
   6      1.22589875    -0.85850547  -264.64378781     0.00002689    -0.00000807  0.40D-07  0.24D-07  6  6    14.82
   7      1.22592816    -0.85850304  -264.64378539     0.00000243    -0.00000623  0.25D-08  0.40D-08  6  4    15.74
   8      1.22592846    -0.85850256  -264.64378490     0.00000049     0.00000195  0.39D-09  0.27D-09  6  1    16.66
   9      1.22592908    -0.85850262  -264.64378497    -0.00000007     0.00000056  0.26D-10  0.21D-10  6  2    17.60

 Norm of t1 vector:      0.10600994      S-energy:    -0.00000002      T1 diagnostic:  0.01530122
                                                                       D1 diagnostic:  0.04496262

 Adding energy correction from Wij-K(Fij), methodcc=6  factor=1.0
 
  CCSD correlation energy              -0.858502624077
  MP2-F12 correction (uncoupled)       -0.092486465884
  C*T doubles correction               -0.001475373350
  f12b correction                       0.015407982175


 Total CPU time for triples:     28.96 sec


 RESULTS
 =======

  Reference energy                   -263.769360071393
  F12 singles correction               -0.015922272530

 F12 singles corrections added to reference energy

  New reference energy               -263.785282343923

  F12a singlet correction              -0.080425136614
  F12a triplet correction              -0.013536702619
  F12a total correction                -0.093961839233

 F12a corrections for ansatz F12/3C(FIX) added to CCSD energy
 
  CCSD-F12a singlet pair energy        -0.641942169433
  CCSD-F12a triplet pair energy        -0.310522270434
  CCSD-F12a correlation energy         -0.952464463310

  Triples (T) contribution             -0.037657603063
  Total correlation energy             -0.990122066373

  CCSD-F12a total energy             -264.737746807233
  CCSD[T]-F12a energy                -264.777951310181
  CCSD-T-F12a energy                 -264.774465736802
 !CCSD(T)-F12a total energy          -264.775404410295

 F12b corrections for ansatz F12/3C(FIX) added to CCSD(T)-F12a energy

  CCSD-F12b singlet pair energy        -0.627757504816
  CCSD-F12b triplet pair energy        -0.309298952876
  CCSD-F12b correlation energy         -0.937056481136

  Triples (T) contribution             -0.037657603062
  Total correlation energy             -0.974714084198

  CCSD-F12b total energy             -264.722338825059
  CCSD[T]-F12b energy                -264.762543328006
  CCSD-T-F12b energy                 -264.759057754628
 !CCSD(T)-F12b total energy          -264.759996428121

 Timing summary (sec):

 STEP                 CPU(USER)    SYS     CPU(TOT)    WALL
 Transformation          1.52      0.20      1.72      1.71
 CCSD iterations         8.21      0.60      8.81      8.79
 Triples                28.96      0.79     29.75     29.74
 MP2-F12                 7.88      1.07      8.95      8.95
 F12b energy             0.55      0.01      0.56      0.57

 Program statistics:

 Available memory in ccsd:                99998934
 Min. memory needed in ccsd:               2252999
 Max. memory used in ccsd:                 3011949
 Max. memory used in cckext:               2777209 (10 integral passes)



 **********************************************************************************************************************************
 DATASETS  * FILE   NREC   LENGTH (MB)   RECORD NAMES
              1      20      137.17       500      610      700      900      950      970     1000      129      960     1100   
                                          VAR    BASINP    GEOM    SYMINP    ZMAT    AOBASIS   BASIS     P2S    ABASIS      S 
                                         1400     1410     1200     1210     1080     1600     1650     1700      960(1)  1380   
                                           T        V       H0       H01     AOSYM     SMH    MOLCAS    OPER    ABASIS    JKOP   

              2       5        0.98       700     1000     2100     7360     7350   
                                         GEOM     BASIS     RHF    F12ABS    EF12   

 PROGRAMS   *        TOTAL   CCSD(T)        HF       INT
 CPU TIMES  *        52.40     47.16      1.20      3.96
 REAL TIME  *        55.72 SEC
 DISK USED  *       918.68 MB      
 SF USED    *         1.34 GB      
 GA USED    *         2.40 MB       (max)       0.00 MB       (current)
 **********************************************************************************************************************************

     CCSD(T)-F12        HF-SCF  
   -264.75999643   -263.76936007
 **********************************************************************************************************************************
 Variable memory released
