
 Primary working directories    : /scratch/kee
 Secondary working directories  : /scratch/kee
 Wavefunction directory         : /home/kee/wfu/
 Main file repository           : /scratch/kee/

 ARCHNAME  : Linux/x86_64
 FC        : /opt/intel/composer_xe_2015.0.090/bin/intel64/ifort
 FCVERSION : 15.0.0
 BLASLIB   : -L/opt/intel/mkl/lib/intel64 -lmkl_intel_ilp64 -lmkl_sequential -lmkl_core
 id        : emory

 Nodes     nprocs
 node15       3
 Number of processes for MPI-2 version of Molpro:   nprocs(total)=    4   nprocs(compute)=    3   nprocs(helper)=    1
 ga_uses_ma=false, calling ma_init with nominal heap.
 GA-space will be limited to   8.0 MW (determined by -G option)

 Using customized tuning parameters: mindgm=7; mindgv=32; mindgc=1; mindgr=1; noblas=0; mincuda=1000; minvec=7
 default implementation of scratch files=sf  

 ***,co2h2o
 memory,100,m
 basis avtz
 geomtype = xyz
 geometry = {
 6
       0.00000777
 O    10.97257393   -1.10347931    0.00000000
 O    11.76744404    1.08065151   -0.00000000
 O     0.54356282    0.00000000    0.00000000
 H    -0.20443226    0.58340495    0.10287003
 H     1.29598802    0.58686026    0.10347930
 C    11.34356282    0.00000000    0.00000000
 }
 hf
 ccsd(t)-f12
 ---

 Variables initialized (665), CPU time= 0.01 sec
 Commands  initialized (462), CPU time= 0.00 sec, 486 directives.
 Default parameters read. Elapsed time= 0.03 sec

 Checking input...
 Passed
1


                                         ***  PROGRAM SYSTEM MOLPRO  ***
                         Copyright, University College Cardiff Consultants Limited, 2008

                                    Version 2010.1 linked 9 Dec 2014 15:06:28 


 **********************************************************************************************************************************
 LABEL *   co2h2o                                                                        
 Linux-2.6.32-504.el6.x86_64/node15(x86_64) 64 bit mpp version                           DATE: 18-Jan-17          TIME: 21:50:36  
 **********************************************************************************************************************************

 Patch level:      19
 **********************************************************************************************************************************

 Variable memory set to  100000000 words,  buffer space   230000 words

 SETTING BASIS          =    AVTZ
 SETTING GEOMTYPE       =    XYZ

Geometry recognized as XYZ



 Recomputing integrals since basis changed


 Using spherical harmonics

 Library entry O      S aug-cc-pVTZ          selected for orbital group  1
 Library entry O      P aug-cc-pVTZ          selected for orbital group  1
 Library entry O      D aug-cc-pVTZ          selected for orbital group  1
 Library entry O      F aug-cc-pVTZ          selected for orbital group  1
 Library entry H      S aug-cc-pVTZ          selected for orbital group  2
 Library entry H      P aug-cc-pVTZ          selected for orbital group  2
 Library entry H      D aug-cc-pVTZ          selected for orbital group  2
 Library entry C      S aug-cc-pVTZ          selected for orbital group  3
 Library entry C      P aug-cc-pVTZ          selected for orbital group  3
 Library entry C      D aug-cc-pVTZ          selected for orbital group  3
 Library entry C      F aug-cc-pVTZ          selected for orbital group  3

1PROGRAM * SEWARD (Integral evaluation for generally contracted gaussian basis sets)     Author: Roland Lindh, 1990

 Geometry written to block  1 of record 700


 Point group  C1  



 ATOMIC COORDINATES

 NR  ATOM    CHARGE       X              Y              Z

   1  O       8.00   20.735159684   -2.085273688    0.000000000
   2  O       8.00   22.237246502    2.042135397    0.000000000
   3  O       8.00    1.027184865    0.000000000    0.000000000
   4  H       1.00   -0.386320984    1.102475579    0.194396184
   5  H       1.00    2.449062427    1.109005169    0.195547537
   6  C       6.00   21.436227084    0.000000000    0.000000000

 Bond lengths in Bohr (Angstrom)

 1-6  2.199968602  2-6  2.193615529  3-4  1.803119814  3-5  1.813799081
     (1.164173245)     (1.160811343)     (0.954169911)     (0.959821135)

 Bond angles

  1-6-2  177.16520951   4-3-5  103.24222917

 NUCLEAR CHARGE:                   32
 NUMBER OF PRIMITIVE AOS:         322
 NUMBER OF SYMMETRY AOS:          282
 NUMBER OF CONTRACTIONS:          230   ( 230A   )
 NUMBER OF CORE ORBITALS:           4   (   4A   )
 NUMBER OF VALENCE ORBITALS:       18   (  18A   )


 NUCLEAR REPULSION ENERGY   78.20882275


 Eigenvalues of metric

         1 0.350E-03 0.385E-03 0.390E-03 0.422E-03 0.904E-03 0.923E-03 0.164E-02 0.176E-02


 Contracted 2-electron integrals neglected if value below      1.0D-11
 AO integral compression algorithm  1   Integral accuracy      1.0D-11

     370.409 MB (compressed) written to integral file ( 19.2%)

     Node minimum: 111.935 MB, node maximum: 130.286 MB


 NUMBER OF SORTED TWO-ELECTRON INTEGRALS:  117629820.     BUFFER LENGTH:  32768
 NUMBER OF SEGMENTS:   8  SEGMENT LENGTH:   15997437      RECORD LENGTH: 524288

 Memory used in sort:      16.55 MW

 SORT1 READ   240745407. AND WROTE    24852943. INTEGRALS IN     75 RECORDS. CPU TIME:     1.94 SEC, REAL TIME:     2.19 SEC
 SORT2 READ    74242605. AND WROTE   352862895. INTEGRALS IN   1281 RECORDS. CPU TIME:     0.84 SEC, REAL TIME:     1.06 SEC

 Node minimum:   117612110.  Node maximum:   117629820. integrals

 OPERATOR DM      FOR CENTER  0  COORDINATES:    0.000000    0.000000    0.000000


 **********************************************************************************************************************************
 DATASETS  * FILE   NREC   LENGTH (MB)   RECORD NAMES
              1      18        4.62       500      610      700      900      950      970     1000      129      960     1100   
                                          VAR    BASINP    GEOM    SYMINP    ZMAT    AOBASIS   BASIS     P2S    ABASIS      S 
                                         1400     1410     1200     1210     1080     1600     1650     1700   
                                           T        V       H0       H01     AOSYM     SMH    MOLCAS    OPER   

 PROGRAMS   *        TOTAL       INT
 CPU TIMES  *         4.86      4.79
 REAL TIME  *         5.49 SEC
 DISK USED  *         1.25 GB      
 GA USED    *         0.00 MB       (max)       0.00 MB       (current)
 **********************************************************************************************************************************

1PROGRAM * RHF-SCF (CLOSED SHELL)       Authors: W. Meyer, H.-J. Werner


 NUMBER OF ELECTRONS:      16+   16-    SPACE SYMMETRY=1    SPIN SYMMETRY=Singlet 
 CONVERGENCE THRESHOLDS:    1.00E-05 (Density)    1.00E-07 (Energy)
 MAX. NUMBER OF ITERATIONS:       60
 INTERPOLATION TYPE:            DIIS
 INTERPOLATION STEPS:              2 (START)      1 (STEP)
 LEVEL SHIFTS:                  0.00 (CLOSED)  0.00 (OPEN) 



 Orbital guess generated from atomic densities. Full valence occupancy:   22

 Molecular orbital dump at record        2100.2

 ITERATION    DDIFF          GRAD             ENERGY        2-EL.EN.            DIPOLE MOMENTS         DIIS
    1      0.000D+00      0.000D+00      -263.65948437    351.793202   -0.06882    1.17033    0.19888    0
    2      0.000D+00      0.469D-02      -263.72500094    347.279669   -0.01108    0.67250    0.11718    1
    3      0.752D-02      0.319D-02      -263.76857029    349.830923   -0.03308    0.79849    0.13669    2
    4      0.310D-02      0.300D-03      -263.76906697    349.617641   -0.03232    0.80085    0.13756    3
    5      0.356D-03      0.875D-04      -263.76912555    349.620895   -0.03203    0.79676    0.13658    4
    6      0.133D-03      0.354D-04      -263.76913283    349.635228   -0.03216    0.79670    0.13673    5
    7      0.443D-04      0.873D-05      -263.76913357    349.627072   -0.03203    0.79671    0.13666    6
    8      0.145D-04      0.210D-05      -263.76913362    349.628184   -0.03215    0.79642    0.13666    7
    9      0.400D-05      0.126D-05      -263.76913362    349.628180   -0.03205    0.79667    0.13666    0

 Final occupancy:  16

 !RHF STATE 1.1 Energy               -263.769133621648
 Nuclear energy                        78.20882275
 One-electron energy                 -516.79204635
 Two-electron energy                  174.81408999
 Virial quotient                       -1.00179924
 !RHF STATE 1.1 Dipole moment          -0.03205259     0.79666737     0.13665615
 Dipole moment /Debye                  -0.08146423     2.02479384     0.34732254

 Orbital energies:

         1.1          2.1          3.1          4.1          5.1          6.1          7.1          8.1          9.1         10.1
    -20.654287   -20.653123   -20.567935   -11.462573    -1.531227    -1.477920    -1.354901    -0.801565    -0.743657    -0.715726

        11.1         12.1         13.1         14.1         15.1         16.1         17.1         18.1
     -0.715245    -0.715233    -0.587721    -0.544942    -0.544890    -0.510987     0.028812     0.043382


 **********************************************************************************************************************************
 DATASETS  * FILE   NREC   LENGTH (MB)   RECORD NAMES
              1      18        4.62       500      610      700      900      950      970     1000      129      960     1100   
                                          VAR    BASINP    GEOM    SYMINP    ZMAT    AOBASIS   BASIS     P2S    ABASIS      S 
                                         1400     1410     1200     1210     1080     1600     1650     1700   
                                           T        V       H0       H01     AOSYM     SMH    MOLCAS    OPER   

              2       3        1.44       700     1000     2100   
                                         GEOM     BASIS     RHF  

 PROGRAMS   *        TOTAL        HF       INT
 CPU TIMES  *        11.87      7.01      4.79
 REAL TIME  *        12.66 SEC
 DISK USED  *         1.29 GB      
 SF USED    *         0.21 MB      
 GA USED    *         0.00 MB       (max)       0.00 MB       (current)
 **********************************************************************************************************************************


1PROGRAM * CCSD (Closed-shell coupled cluster)     Authors: C. Hampel, H.-J. Werner, 1991, M. Deegan, P.J. Knowles, 1992

                                  CCSD-F12 implementation by  H.-J. Werner, 2007

                   Density fitting integral evaluation by F.R. Manby, 2003,2007, G. Knizia, 2010

 Basis set CC-PVTZ/JKFIT generated.      Number of basis functions:   376 
 Basis set AUG-CC-PVTZ/MP2FIT generated. Number of basis functions:   516 

 Convergence thresholds:  THRVAR = 1.00D-08  THRDEN = 1.00D-06

 CCSD(T)     terms to be evaluated (factor= 1.000)


 Number of core orbitals:           4 (   4 )
 Number of closed-shell orbitals:  12 (  12 )
 Number of external orbitals:     214 ( 214 )

 Molecular orbitals read from record     2100.2  Type=RHF/CANONICAL (state 1.1)

 MP2-F12 correlation treatment (H.-J. Werner, 2006)
 --------------------------------------------------

 Using MP2-F12 with ansatz 3C(FIX)

 Using projected zeroth-order Hamiltonian (+Z)

 FOCKRIB=T FOCKRIC=T FOCKRIP=T CABSP=T CABSA=T CABSK=T CABSF=T GBC=F EBC=F DMAT=T NOFIK=T NOPAO=1 SOLVE=-1  USEPAO=0
 EXCH_A= T EXCH_B= F EXCH_C= F EXCH_P= F
 
 Geminal basis:    OPTFULL  GEM_TYPE=SLATER  BETA=1.0  NGEM=6

 Optimizing Gaussian exponents for each gem_beta

 Geminal optimization for beta= 1.0000
 Weight function:   m=0, omega= 1.4646

 Augmented Hessian optimization of geminal fit. Trust ratio= 0.40000
 Convergence reached after   2 iterations. Final gradient= 8.24D-16, Step= 4.32D-06, Delta= 1.28D-09
 
 Alpha:                 0.19532     0.81920     2.85917     9.50073    35.69989   197.79328
 Coeff:                 0.27070     0.30552     0.18297     0.10986     0.06810     0.04224
 

 All pairs explicitly correlated. Number of r12-pairs:           78
 
 AO(A)-basis ORBITAL           loaded. Number of functions:     230
 RI(R)-basis CC-PVTZ/JKFIT     loaded. Number of functions:     376
 DF-basis CC-PVTZ/JKFIT        loaded. Number of functions:     376

 Screening thresholds:   THRAO=  1.00D-10  THRMO=  1.00D-09  THRPROD=  1.00D-09
                         THRSW=  1.00D-05  THROV=  1.00D-12  THRF12=   1.00D-08

 CPU time for Fock operators                      0.84 sec
 
 Construction of ABS:
 Smallest eigenvalue of S          2.58E-04  (threshold= 1.00E-08)
 Ratio eigmin/eigmax               1.84E-06  (threshold= 1.00E-09)
 Smallest eigenvalue of S kept     2.58E-04  (threshold= 2.58E-04, 0 functions deleted, 376 kept)
 
 Construction of CABS:
 Smallest eigenvalue of S          2.30E-08  (threshold= 1.00E-08)
 Ratio eigmin/eigmax               2.30E-08  (threshold= 1.00E-09)
 Smallest eigenvalue of S kept     2.30E-08  (threshold= 2.30E-08, 0 functions deleted, 376 kept)
 
 CPU time for CABS singles                        0.15 sec

 CABS-singles contribution of  -0.01593127 patched into reference energy.
 New reference energy        -263.78506489
 
 AO(A)-basis ORBITAL           loaded. Number of functions:     230
 RI(R)-basis CC-PVTZ/JKFIT     loaded. Number of functions:     376
 DF-basis AUG-CC-PVTZ/MP2FIT   loaded. Number of functions:     516

 Screening thresholds:   THRAO=  1.00D-10  THRMO=  1.00D-09  THRPROD=  1.00D-09
                         THRSW=  1.00D-05  THROV=  1.00D-12  THRF12=   1.00D-08

 CPU time for 3-index integral evaluation         1.46 sec
 CPU time for first  half transformation          0.15 sec (12737.4 MFLOP/sec)
 CPU time for second half transformation          0.01 sec ( 9063.5 MFLOP/sec)
 CPU time for sorting                             0.11 sec
 CPU time for fitting                             0.05 sec (27861.0 MFLOP/sec)
 CPU time for tilde quantities                    0.08 sec (23111.0 MFLOP/sec)
 CPU time for assembly                            0.76 sec (31549.9 MFLOP/sec)
 CPU time for tranop_f12                          0.88 sec (34411.0 MFLOP/sec)
 CPU time for f12 integrals (total)               5.44 sec
 F12-matrices built in  3 passes.
 F12-matrices built in  3 passes.
 F12-matrices built in  3 passes.
 F12-matrices built in  3 passes.
 FC-matrix built in  3 passes.
 CPU time for f12 matrices (total)                0.46 sec

 Diagonal F12 approximation with fixed coefficients:  TSING= 0.500,  TTRIP= 0.250 (scaled by -1/beta)

 DF-MP2-F12 energy corrections:
 ------------------------------
 Approx.                                    Singlet             Triplet             Total
 DF-MP2-F12/3*C(DX,FIX)                -0.097444162842     -0.016933701832     -0.114377864675
 DF-MP2-F12/3*C(FIX)                   -0.079853302893     -0.013394851915     -0.093248154808
 DF-MP2-F12/3C(FIX)                    -0.080214781511     -0.013418656218     -0.093633437729

 DF-MP2-F12 correlation energies:
 --------------------------------
 Approx.                                    Singlet             Triplet             Ecorr            Total Energy
 DF-MP2                                -0.537793233467     -0.343134984023     -0.880928217490   -264.665993105272
 DF-MP2-F12/3*C(DX,FIX)                -0.635237396310     -0.360068685855     -0.995306082165   -264.780370969947
 DF-MP2-F12/3*C(FIX)                   -0.617646536360     -0.356529835938     -0.974176372299   -264.759241260081
 DF-MP2-F12/3C(FIX)                    -0.618008014978     -0.356553640241     -0.974561655219   -264.759626543001

 SCS-DF-MP2 energies (F_SING= 1.20000  F_TRIP= 0.62222  F_PARALLEL= 0.33333):
 ----------------------------------------------------------------------------
 SCS-DF-MP2                            -0.858858092442   -264.643922980224
 SCS-DF-MP2-F12/3*C(DX,FIX)            -0.986327613437   -264.771392501219
 SCS-DF-MP2-F12/3*C(FIX)               -0.963016630438   -264.748081518220
 SCS-DF-MP2-F12/3C(FIX)                -0.963465216346   -264.748530104128
 Symmetry transformation completed.

 Number of N-1 electron functions:              12
 Number of N-2 electron functions:              78
 Number of singly external CSFs:              2568
 Number of doubly external CSFs:           3298596
 Total number of CSFs:                     3301165

 Pair and operator lists are different

 Length of J-op  integral file:             474.22 MB
 Length of K-op  integral file:             572.29 MB
 Length of 3-ext integral record:             0.00 MB

 For full I/O caching in triples, increase memory by 50.81 Mwords to 151.09 Mwords.

 Integral transformation finished. Total CPU:  11.45 sec, npass=  1  Memory used:  87.46 MW

 Reference energy:                   -263.78506489

 Adding F12 terms to K(Cij), methodcc=6,  factor=1.0

 ITER.      SQ.NORM     CORR.ENERGY   TOTAL ENERGY   ENERGY CHANGE        DEN1      VAR(S)    VAR(P)  DIIS     TIME
   1      1.20217048    -0.86285852  -264.64792340     0.01808606     0.04675087  0.72D-02  0.56D-02  1  1    24.88
   2      1.21649473    -0.85861919  -264.64368408     0.00423932    -0.02017054  0.86D-04  0.59D-03  2  2    31.43
   3      1.22185864    -0.85871446  -264.64377935    -0.00009527    -0.00236195  0.13D-03  0.32D-04  3  3    38.55
   4      1.22466524    -0.85858585  -264.64365074     0.00012861    -0.00141261  0.76D-05  0.41D-05  4  4    45.74
   5      1.22569852    -0.85854788  -264.64361277     0.00003797    -0.00036739  0.56D-06  0.29D-06  5  5    52.97
   6      1.22586121    -0.85852095  -264.64358583     0.00002694    -0.00000807  0.40D-07  0.24D-07  6  6    59.96
   7      1.22589070    -0.85851850  -264.64358339     0.00000244    -0.00000622  0.26D-08  0.40D-08  6  4    67.20
   8      1.22589106    -0.85851800  -264.64358289     0.00000050     0.00000193  0.40D-09  0.28D-09  6  1    74.38
   9      1.22589165    -0.85851807  -264.64358296    -0.00000007     0.00000058  0.27D-10  0.22D-10  6  2    81.64

 Norm of t1 vector:      0.10606697      S-energy:     0.00000026      T1 diagnostic:  0.01530945
                                                                       D1 diagnostic:  0.04500896

 Adding energy correction from Wij-K(Fij), methodcc=6  factor=1.0
 
  CCSD correlation energy              -0.858518071460
  MP2-F12 correction (uncoupled)       -0.092474853918
  C*T doubles correction               -0.001477531534
  f12b correction                       0.015405131081


 Total CPU time for triples:    211.51 sec


 RESULTS
 =======

  Reference energy                   -263.769133621648
  F12 singles correction               -0.015931266134

 F12 singles corrections added to reference energy

  New reference energy               -263.785064887782

  F12a singlet correction              -0.080415514364
  F12a triplet correction              -0.013536871089
  F12a total correction                -0.093952385452

 F12a corrections for ansatz F12/3C(FIX) added to CCSD energy
 
  CCSD-F12a singlet pair energy        -0.641931983769
  CCSD-F12a triplet pair energy        -0.310538734102
  CCSD-F12a correlation energy         -0.952470456912

  Triples (T) contribution             -0.037658988781
  Total correlation energy             -0.990129445694

  CCSD-F12a total energy             -264.737535344694
  CCSD[T]-F12a energy                -264.777743075270
  CCSD-T-F12a energy                 -264.774255116521
 !CCSD(T)-F12a total energy          -264.775194333476

 F12b corrections for ansatz F12/3C(FIX) added to CCSD(T)-F12a energy

  CCSD-F12b singlet pair energy        -0.627749977832
  CCSD-F12b triplet pair energy        -0.309315608959
  CCSD-F12b correlation energy         -0.937065325831

  Triples (T) contribution             -0.037658988781
  Total correlation energy             -0.974724314613

  CCSD-F12b total energy             -264.722130213613
  CCSD[T]-F12b energy                -264.762337944189
  CCSD-T-F12b energy                 -264.758849985440
 !CCSD(T)-F12b total energy          -264.759789202395

 Timing summary (sec):

 STEP                 CPU(USER)    SYS     CPU(TOT)    WALL
 Transformation         11.56      1.07     12.63     12.62
 CCSD iterations        62.71      2.70     65.41     65.56
 Triples               211.51      2.37    213.88    213.79
 MP2-F12                 7.39      1.02      8.41      8.41
 F12b energy             4.08      0.04      4.12      4.12

 Program statistics:

 Available memory in ccsd:                99998934
 Min. memory needed in ccsd:               8644845
 Max. memory used in ccsd:                11598633
 Max. memory used in cckext:               8768967 (10 integral passes)



 **********************************************************************************************************************************
 DATASETS  * FILE   NREC   LENGTH (MB)   RECORD NAMES
              1      20      527.84       500      610      700      900      950      970     1000      129      960     1100   
                                          VAR    BASINP    GEOM    SYMINP    ZMAT    AOBASIS   BASIS     P2S    ABASIS      S 
                                         1400     1410     1200     1210     1080     1600     1650     1700      960(1)  1380   
                                           T        V       H0       H01     AOSYM     SMH    MOLCAS    OPER    ABASIS    JKOP   

              2       5        2.50       700     1000     2100     7360     7350   
                                         GEOM     BASIS     RHF    F12ABS    EF12   

 PROGRAMS   *        TOTAL   CCSD(T)        HF       INT
 CPU TIMES  *       309.42    297.54      7.01      4.79
 REAL TIME  *       317.52 SEC
 DISK USED  *         2.15 GB      
 SF USED    *         1.91 GB      
 GA USED    *         2.40 MB       (max)       0.00 MB       (current)
 **********************************************************************************************************************************

     CCSD(T)-F12        HF-SCF  
   -264.75978920   -263.76913362
 **********************************************************************************************************************************
 Variable memory released
