
 Primary working directories    : /scratch/kee
 Secondary working directories  : /scratch/kee
 Wavefunction directory         : /home/kee/wfu/
 Main file repository           : /scratch/kee/

 ARCHNAME  : Linux/x86_64
 FC        : /opt/intel/composer_xe_2015.0.090/bin/intel64/ifort
 FCVERSION : 15.0.0
 BLASLIB   : -L/opt/intel/mkl/lib/intel64 -lmkl_intel_ilp64 -lmkl_sequential -lmkl_core
 id        : emory

 Nodes     nprocs
 node23       3
 Number of processes for MPI-2 version of Molpro:   nprocs(total)=    4   nprocs(compute)=    3   nprocs(helper)=    1
 ga_uses_ma=false, calling ma_init with nominal heap.
 GA-space will be limited to   8.0 MW (determined by -G option)

 Using customized tuning parameters: mindgm=7; mindgv=32; mindgc=1; mindgr=1; noblas=0; mincuda=1000; minvec=7
 default implementation of scratch files=sf  

 ***,co2h2o
 memory,100,m
 basis avtz
 geomtype = xyz
 geometry = {
 6
    -264.76489694
 O     0.82869278    1.16169550    0.00000000
 O     0.82658011   -1.16233555    0.00000000
 O    -4.44123441    0.00175902    0.00000000
 H    -5.02486742    0.76235367    0.00000000
 H    -5.02459931   -0.75904290    0.00000000
 C     0.80876519   -0.00029961    0.00000000
 }
 hf
 ccsd(t)-f12
 ---

 Variables initialized (665), CPU time= 0.00 sec
 Commands  initialized (462), CPU time= 0.01 sec, 486 directives.
 Default parameters read. Elapsed time= 0.05 sec

 Checking input...
 Passed
1


                                         ***  PROGRAM SYSTEM MOLPRO  ***
                         Copyright, University College Cardiff Consultants Limited, 2008

                                    Version 2010.1 linked 9 Dec 2014 15:06:28 


 **********************************************************************************************************************************
 LABEL *   co2h2o                                                                        
 Linux-2.6.32-504.el6.x86_64/node23(x86_64) 64 bit mpp version                           DATE: 06-Dec-16          TIME: 23:59:43  
 **********************************************************************************************************************************

 Patch level:      19
 **********************************************************************************************************************************

 Variable memory set to  100000000 words,  buffer space   230000 words

 SETTING BASIS          =    AVTZ
 SETTING GEOMTYPE       =    XYZ

Geometry recognized as XYZ



 Recomputing integrals since basis changed


 Using spherical harmonics

 Library entry O      S aug-cc-pVTZ          selected for orbital group  1
 Library entry O      P aug-cc-pVTZ          selected for orbital group  1
 Library entry O      D aug-cc-pVTZ          selected for orbital group  1
 Library entry O      F aug-cc-pVTZ          selected for orbital group  1
 Library entry H      S aug-cc-pVTZ          selected for orbital group  2
 Library entry H      P aug-cc-pVTZ          selected for orbital group  2
 Library entry H      D aug-cc-pVTZ          selected for orbital group  2
 Library entry C      S aug-cc-pVTZ          selected for orbital group  3
 Library entry C      P aug-cc-pVTZ          selected for orbital group  3
 Library entry C      D aug-cc-pVTZ          selected for orbital group  3
 Library entry C      F aug-cc-pVTZ          selected for orbital group  3

1PROGRAM * SEWARD (Integral evaluation for generally contracted gaussian basis sets)     Author: Roland Lindh, 1990

 Geometry written to block  1 of record 700


 Point group  Cs  



 ATOMIC COORDINATES

 NR  ATOM    CHARGE       X              Y              Z

   1  O       8.00    1.566002401    2.195286343    0.000000000
   2  O       8.00    1.562010034   -2.196495862    0.000000000
   3  O       8.00   -8.392716720    0.003324066    0.000000000
   4  H       1.00   -9.495623271    1.440639652    0.000000000
   5  H       1.00   -9.495116616   -1.434383203    0.000000000
   6  C       6.00    1.528344714   -0.000566181    0.000000000

 Bond lengths in Bohr (Angstrom)

 1-6  2.196175405  2-6  2.196187724  3-4  1.811706088  3-5  1.811708509
     (1.162165971)     (1.162172490)     (0.958713571)     (0.958714852)

 Bond angles

  1-6-2  178.13918425   4-3-5  105.01947441

 NUCLEAR CHARGE:                   32
 NUMBER OF PRIMITIVE AOS:         322
 NUMBER OF SYMMETRY AOS:          282
 NUMBER OF CONTRACTIONS:          230   ( 152A'  +  78A"  )
 NUMBER OF CORE ORBITALS:           4   (   4A'  +   0A"  )
 NUMBER OF VALENCE ORBITALS:       18   (  14A'  +   4A"  )


 NUCLEAR REPULSION ENERGY   88.75354239


 Eigenvalues of metric

         1 0.346E-03 0.360E-03 0.388E-03 0.394E-03 0.898E-03 0.921E-03 0.165E-02 0.168E-02
         2 0.318E-02 0.348E-02 0.583E-02 0.124E-01 0.135E-01 0.285E-01 0.296E-01 0.314E-01


 Contracted 2-electron integrals neglected if value below      1.0D-11
 AO integral compression algorithm  1   Integral accuracy      1.0D-11

     446.431 MB (compressed) written to integral file ( 27.1%)

     Node minimum: 140.509 MB, node maximum: 158.597 MB


 NUMBER OF SORTED TWO-ELECTRON INTEGRALS:   59950380.     BUFFER LENGTH:  32768
 NUMBER OF SEGMENTS:   4  SEGMENT LENGTH:   15995235      RECORD LENGTH: 524288

 Memory used in sort:      16.55 MW

 SORT1 READ   206005689. AND WROTE    34320427. INTEGRALS IN    100 RECORDS. CPU TIME:     2.86 SEC, REAL TIME:     3.26 SEC
 SORT2 READ   103410683. AND WROTE   179836431. INTEGRALS IN   1815 RECORDS. CPU TIME:     1.03 SEC, REAL TIME:     1.36 SEC

 Node minimum:    59940574.  Node maximum:    59950380. integrals

 OPERATOR DM      FOR CENTER  0  COORDINATES:    0.000000    0.000000    0.000000


 **********************************************************************************************************************************
 DATASETS  * FILE   NREC   LENGTH (MB)   RECORD NAMES
              1      18        3.74       500      610      700      900      950      970     1000      129      960     1100   
                                          VAR    BASINP    GEOM    SYMINP    ZMAT    AOBASIS   BASIS     P2S    ABASIS      S 
                                         1400     1410     1200     1210     1080     1600     1650     1700   
                                           T        V       H0       H01     AOSYM     SMH    MOLCAS    OPER   

 PROGRAMS   *        TOTAL       INT
 CPU TIMES  *         7.95      7.85
 REAL TIME  *         9.26 SEC
 DISK USED  *         1.68 GB      
 GA USED    *         0.00 MB       (max)       0.00 MB       (current)
 **********************************************************************************************************************************

1PROGRAM * RHF-SCF (CLOSED SHELL)       Authors: W. Meyer, H.-J. Werner


 NUMBER OF ELECTRONS:      16+   16-
 CONVERGENCE THRESHOLDS:    1.00E-05 (Density)    1.00E-07 (Energy)
 MAX. NUMBER OF ITERATIONS:       60
 INTERPOLATION TYPE:            DIIS
 INTERPOLATION STEPS:              2 (START)      1 (STEP)
 LEVEL SHIFTS:                  0.00 (CLOSED)  0.00 (OPEN) 



 Orbital guess generated from atomic densities. Full valence occupancy:   18   4

 Molecular orbital dump at record        2100.2

 Initial alpha occupancy:  13   3
 Initial beta  occupancy:  13   3
 Wave function symmetry:    1

 ITERATION    DDIFF          GRAD             ENERGY        2-EL.EN.            DIPOLE MOMENTS         DIIS
    1      0.000D+00      0.000D+00      -263.66142137    373.308063   -1.18424   -0.00012    0.00000    0
    2      0.000D+00      0.628D-02      -263.72648881    368.652522   -0.70936   -0.00009    0.00000    1
    3      0.101D-01      0.426D-02      -263.76940631    371.220918   -0.82616   -0.00008    0.00000    2
    4      0.414D-02      0.402D-03      -263.76990127    371.011936   -0.82921   -0.00009    0.00000    3
    5      0.486D-03      0.117D-03      -263.76995928    371.012175   -0.82405   -0.00009    0.00000    4
    6      0.181D-03      0.473D-04      -263.76996648    371.027069   -0.82476   -0.00009    0.00000    5
    7      0.605D-04      0.115D-04      -263.76996721    371.018627   -0.82432   -0.00009    0.00000    6
    8      0.197D-04      0.254D-05      -263.76996726    371.019935   -0.82433   -0.00009    0.00000    7
    9      0.541D-05      0.851D-06      -263.76996726    371.019735   -0.82430   -0.00009    0.00000    0

 Final occupancy:  13   3

 !RHF STATE 1.1 Energy               -263.769967259631
 Nuclear energy                        88.75354239
 One-electron energy                 -538.03337701
 Two-electron energy                  185.50986736
 Virial quotient                       -1.00183438
 !RHF STATE 1.1 Dipole moment          -0.82429960    -0.00008670     0.00000000
 Dipole moment /Debye                  -2.09502337    -0.00022035     0.00000000

 Orbital energies:

         1.1          2.1          3.1          4.1          5.1          6.1          7.1          8.1          9.1         10.1
    -20.646255   -20.646209   -20.569319   -11.455167    -1.523916    -1.470845    -1.354575    -0.794320    -0.736613    -0.720083

        11.1         12.1         13.1         14.1         15.1
     -0.707837    -0.586022    -0.537639     0.028008     0.047087

         1.2          2.2          3.2          4.2          5.2
     -0.708036    -0.537738    -0.512248     0.078666     0.159641


 **********************************************************************************************************************************
 DATASETS  * FILE   NREC   LENGTH (MB)   RECORD NAMES
              1      18        3.76       500      610      700      900      950      970     1000      129      960     1100   
                                          VAR    BASINP    GEOM    SYMINP    ZMAT    AOBASIS   BASIS     P2S    ABASIS      S 
                                         1400     1410     1200     1210     1080     1600     1650     1700   
                                           T        V       H0       H01     AOSYM     SMH    MOLCAS    OPER   

              2       3        0.96       700     1000     2100   
                                         GEOM     BASIS     RHF  

 PROGRAMS   *        TOTAL        HF       INT
 CPU TIMES  *        12.39      4.44      7.85
 REAL TIME  *        13.95 SEC
 DISK USED  *         1.70 GB      
 SF USED    *         0.12 MB      
 GA USED    *         0.00 MB       (max)       0.00 MB       (current)
 **********************************************************************************************************************************


1PROGRAM * CCSD (Closed-shell coupled cluster)     Authors: C. Hampel, H.-J. Werner, 1991, M. Deegan, P.J. Knowles, 1992

                                  CCSD-F12 implementation by  H.-J. Werner, 2007

                   Density fitting integral evaluation by F.R. Manby, 2003,2007, G. Knizia, 2010

 Basis set CC-PVTZ/JKFIT generated.      Number of basis functions:   376 
 Basis set AUG-CC-PVTZ/MP2FIT generated. Number of basis functions:   516 

 Convergence thresholds:  THRVAR = 1.00D-08  THRDEN = 1.00D-06

 CCSD(T)     terms to be evaluated (factor= 1.000)


 Number of core orbitals:           4 (   4   0 )
 Number of closed-shell orbitals:  12 (   9   3 )
 Number of external orbitals:     214 ( 139  75 )

 Molecular orbitals read from record     2100.2  Type=RHF/CANONICAL (state 1.1)

 MP2-F12 correlation treatment (H.-J. Werner, 2006)
 --------------------------------------------------

 Using MP2-F12 with ansatz 3C(FIX)

 Using projected zeroth-order Hamiltonian (+Z)

 FOCKRIB=T FOCKRIC=T FOCKRIP=T CABSP=T CABSA=T CABSK=T CABSF=T GBC=F EBC=F DMAT=T NOFIK=T NOPAO=1 SOLVE=-1  USEPAO=0
 EXCH_A= T EXCH_B= F EXCH_C= F EXCH_P= F
 
 Geminal basis:    OPTFULL  GEM_TYPE=SLATER  BETA=1.0  NGEM=6

 Optimizing Gaussian exponents for each gem_beta

 Geminal optimization for beta= 1.0000
 Weight function:   m=0, omega= 1.4646

 Augmented Hessian optimization of geminal fit. Trust ratio= 0.40000
 Convergence reached after   2 iterations. Final gradient= 8.24D-16, Step= 4.32D-06, Delta= 1.28D-09
 
 Alpha:                 0.19532     0.81920     2.85917     9.50073    35.69989   197.79328
 Coeff:                 0.27070     0.30552     0.18297     0.10986     0.06810     0.04224
 

 Symmetry turned off. Reference energy:       -263.769967259631

 All pairs explicitly correlated. Number of r12-pairs:           78
 
 AO(A)-basis ORBITAL           loaded. Number of functions:     230
 RI(R)-basis CC-PVTZ/JKFIT     loaded. Number of functions:     376
 DF-basis CC-PVTZ/JKFIT        loaded. Number of functions:     376

 Screening thresholds:   THRAO=  1.00D-10  THRMO=  1.00D-09  THRPROD=  1.00D-09
                         THRSW=  1.00D-05  THROV=  1.00D-12  THRF12=   1.00D-08

 CPU time for Fock operators                      1.11 sec
 
 Construction of ABS:
 Smallest eigenvalue of S          2.57E-04  (threshold= 1.00E-08)
 Ratio eigmin/eigmax               1.83E-06  (threshold= 1.00E-09)
 Smallest eigenvalue of S kept     2.57E-04  (threshold= 2.57E-04, 0 functions deleted, 376 kept)
 
 Construction of CABS:
 Smallest eigenvalue of S          2.30E-08  (threshold= 1.00E-08)
 Ratio eigmin/eigmax               2.30E-08  (threshold= 1.00E-09)
 Smallest eigenvalue of S kept     2.30E-08  (threshold= 2.30E-08, 0 functions deleted, 376 kept)
 
 CPU time for CABS singles                        0.18 sec

 CABS-singles contribution of  -0.01592133 patched into reference energy.
 New reference energy        -263.78588859
 
 AO(A)-basis ORBITAL           loaded. Number of functions:     230
 RI(R)-basis CC-PVTZ/JKFIT     loaded. Number of functions:     376
 DF-basis AUG-CC-PVTZ/MP2FIT   loaded. Number of functions:     516

 Screening thresholds:   THRAO=  1.00D-10  THRMO=  1.00D-09  THRPROD=  1.00D-09
                         THRSW=  1.00D-05  THROV=  1.00D-12  THRF12=   1.00D-08

 CPU time for 3-index integral evaluation         2.47 sec
 CPU time for first  half transformation          0.26 sec (10226.2 MFLOP/sec)
 CPU time for second half transformation          0.02 sec ( 5163.8 MFLOP/sec)
 CPU time for sorting                             0.16 sec
 CPU time for fitting                             0.05 sec (27690.6 MFLOP/sec)
 CPU time for tilde quantities                    0.07 sec (26534.3 MFLOP/sec)
 CPU time for assembly                            0.86 sec (27903.8 MFLOP/sec)
 CPU time for tranop_f12                          1.20 sec (18536.3 MFLOP/sec)
 CPU time for f12 integrals (total)               7.62 sec
 F12-matrices built in  3 passes.
 F12-matrices built in  3 passes.
 F12-matrices built in  3 passes.
 F12-matrices built in  3 passes.
 FC-matrix built in  3 passes.
 CPU time for f12 matrices (total)                0.58 sec

 Diagonal F12 approximation with fixed coefficients:  TSING= 0.500,  TTRIP= 0.250 (scaled by -1/beta)

 DF-MP2-F12 energy corrections:
 ------------------------------
 Approx.                                    Singlet             Triplet             Total
 DF-MP2-F12/3*C(DX,FIX)                -0.097443757856     -0.016932413473     -0.114376171329
 DF-MP2-F12/3*C(FIX)                   -0.079862536575     -0.013394667078     -0.093257203652
 DF-MP2-F12/3C(FIX)                    -0.080223378530     -0.013418027536     -0.093641406066

 DF-MP2-F12 correlation energies:
 --------------------------------
 Approx.                                    Singlet             Triplet             Ecorr            Total Energy
 DF-MP2                                -0.537688989562     -0.343065485696     -0.880754475258   -264.666643068301
 DF-MP2-F12/3*C(DX,FIX)                -0.635132747418     -0.359997899169     -0.995130646587   -264.781019239631
 DF-MP2-F12/3*C(FIX)                   -0.617551526137     -0.356460152773     -0.974011678910   -264.759900271954
 DF-MP2-F12/3C(FIX)                    -0.617912368092     -0.356483513232     -0.974395881324   -264.760284474367

 SCS-DF-MP2 energies (F_SING= 1.20000  F_TRIP= 0.62222  F_PARALLEL= 0.33333):
 ----------------------------------------------------------------------------
 SCS-DF-MP2                            -0.858689756352   -264.644578349395
 SCS-DF-MP2-F12/3*C(DX,FIX)            -0.986157989718   -264.772046582762
 SCS-DF-MP2-F12/3*C(FIX)               -0.962859259756   -264.748747852800
 SCS-DF-MP2-F12/3C(FIX)                -0.963306805499   -264.749195398543

 Symmetry restored.
 Symmetry transformation completed.

 Number of N-1 electron functions:              12
 Number of N-2 electron functions:              78
 Number of singly external CSFs:              1476
 Number of doubly external CSFs:           1686804
 Total number of CSFs:                     1688281

 Pair and operator lists are different

 Length of J-op  integral file:             466.42 MB
 Length of K-op  integral file:             526.62 MB
 Length of 3-ext integral record:             0.00 MB

 Memory could be reduced to 76.61 Mwords without degradation in triples

 Integral transformation finished. Total CPU:   5.56 sec, npass=  1  Memory used:  24.61 MW

 Reference energy:                   -263.78588859

 Adding F12 terms to K(Cij), methodcc=6,  factor=1.0

 ITER.      SQ.NORM     CORR.ENERGY   TOTAL ENERGY   ENERGY CHANGE        DEN1      VAR(S)    VAR(P)  DIIS     TIME
   1      1.20211431    -0.86271879  -264.64860738     0.01805199     0.04666268  0.72D-02  0.56D-02  1  1    18.98
   2      1.21641904    -0.85849943  -264.64438803     0.00421936    -0.02014057  0.86D-04  0.59D-03  2  2    23.29
   3      1.22177904    -0.85859696  -264.64448555    -0.00009753    -0.00236424  0.13D-03  0.32D-04  3  3    27.13
   4      1.22458064    -0.85846934  -264.64435793     0.00012762    -0.00141110  0.76D-05  0.41D-05  4  4    30.67
   5      1.22561029    -0.85843170  -264.64432029     0.00003764    -0.00036613  0.56D-06  0.29D-06  5  5    34.24
   6      1.22577242    -0.85840483  -264.64429343     0.00002686    -0.00000805  0.40D-07  0.24D-07  6  6    38.21
   7      1.22580177    -0.85840241  -264.64429101     0.00000242    -0.00000621  0.26D-08  0.40D-08  6  4    42.02
   8      1.22580207    -0.85840192  -264.64429052     0.00000049     0.00000194  0.39D-09  0.27D-09  6  1    45.68
   9      1.22580268    -0.85840199  -264.64429058    -0.00000007     0.00000056  0.26D-10  0.21D-10  6  2    49.33

 Norm of t1 vector:      0.10595278      S-energy:    -0.00000003      T1 diagnostic:  0.01529297
                                                                       D1 diagnostic:  0.04498053

 Adding energy correction from Wij-K(Fij), methodcc=6  factor=1.0
 
  CCSD correlation energy              -0.858401988535
  MP2-F12 correction (uncoupled)       -0.092485542319
  C*T doubles correction               -0.001474487551
  f12b correction                       0.015406526556


 Total CPU time for triples:     94.25 sec


 RESULTS
 =======

  Reference energy                   -263.769967259631
  F12 singles correction               -0.015921333413

 F12 singles corrections added to reference energy

  New reference energy               -263.785888593044

  F12a singlet correction              -0.080423341350
  F12a triplet correction              -0.013536688521
  F12a total correction                -0.093960029870

 F12a corrections for ansatz F12/3C(FIX) added to CCSD energy
 
  CCSD-F12a singlet pair energy        -0.641848530694
  CCSD-F12a triplet pair energy        -0.310513462217
  CCSD-F12a correlation energy         -0.952362018405

  Triples (T) contribution             -0.037634875836
  Total correlation energy             -0.989996894241

  CCSD-F12a total energy             -264.738250611449
  CCSD[T]-F12a energy                -264.778427032225
  CCSD-T-F12a energy                 -264.774949029086
 !CCSD(T)-F12a total energy          -264.775885487285

 F12b corrections for ansatz F12/3C(FIX) added to CCSD(T)-F12a energy

  CCSD-F12b singlet pair energy        -0.627665402583
  CCSD-F12b triplet pair energy        -0.309290063772
  CCSD-F12b correlation energy         -0.936955491849

  Triples (T) contribution             -0.037634875836
  Total correlation energy             -0.974590367685

  CCSD-F12b total energy             -264.722844084893
  CCSD[T]-F12b energy                -264.763020505669
  CCSD-T-F12b energy                 -264.759542502529
 !CCSD(T)-F12b total energy          -264.760478960729

 Timing summary (sec):

 STEP                 CPU(USER)    SYS     CPU(TOT)    WALL
 Transformation          5.59      0.58      6.17      6.17
 CCSD iterations        33.74      2.02     35.76     37.28
 Triples                94.25      1.76     96.01     95.99
 MP2-F12                10.01      1.24     11.25     11.87
 F12b energy             2.34      0.05      2.39      2.39

 Program statistics:

 Available memory in ccsd:                99998934
 Min. memory needed in ccsd:               4458306
 Max. memory used in ccsd:                 5958390
 Max. memory used in cckext:               6352469 (10 integral passes)



 **********************************************************************************************************************************
 DATASETS  * FILE   NREC   LENGTH (MB)   RECORD NAMES
              1      20      269.66       500      610      700      900      950      970     1000      129      960     1100   
                                          VAR    BASINP    GEOM    SYMINP    ZMAT    AOBASIS   BASIS     P2S    ABASIS      S 
                                         1400     1410     1200     1210     1080     1600     1650     1700      960(1)  1380   
                                           T        V       H0       H01     AOSYM     SMH    MOLCAS    OPER    ABASIS    JKOP   

              2       5        1.55       700     1000     2100     7360     7350   
                                         GEOM     BASIS     RHF    F12ABS    EF12   

 PROGRAMS   *        TOTAL   CCSD(T)        HF       INT
 CPU TIMES  *       158.76    146.35      4.44      7.85
 REAL TIME  *       168.12 SEC
 DISK USED  *         2.14 GB      
 SF USED    *         1.53 GB      
 GA USED    *         2.40 MB       (max)       0.00 MB       (current)
 **********************************************************************************************************************************

     CCSD(T)-F12        HF-SCF  
   -264.76047896   -263.76996726
 **********************************************************************************************************************************
 Variable memory released
