
 Primary working directories    : /scratch/kee
 Secondary working directories  : /scratch/kee
 Wavefunction directory         : /home/kee/wfu/
 Main file repository           : /scratch/kee/

 ARCHNAME  : Linux/x86_64
 FC        : /opt/intel/composer_xe_2015.0.090/bin/intel64/ifort
 FCVERSION : 15.0.0
 BLASLIB   : -L/opt/intel/mkl/lib/intel64 -lmkl_intel_ilp64 -lmkl_sequential -lmkl_core
 id        : emory

 Nodes     nprocs
 node23       3
 Number of processes for MPI-2 version of Molpro:   nprocs(total)=    4   nprocs(compute)=    3   nprocs(helper)=    1
 ga_uses_ma=false, calling ma_init with nominal heap.
 GA-space will be limited to   8.0 MW (determined by -G option)

 Using customized tuning parameters: mindgm=7; mindgv=32; mindgc=1; mindgr=1; noblas=0; mincuda=1000; minvec=7
 default implementation of scratch files=sf  

 ***,co2h2o
 memory,100,m
 basis avtz
 geomtype = xyz
 geometry = {
 6
    -264.76489694
 O     0.82869278    1.16169550    0.00000000
 O     0.82658011   -1.16233555    0.00000000
 O    -4.29123442    0.00170020    0.00000000
 H    -4.87486743    0.76229485    0.00000000
 H    -4.87459932   -0.75910172    0.00000000
 C     0.80876519   -0.00029961    0.00000000
 }
 hf
 ccsd(t)-f12
 ---

 Variables initialized (665), CPU time= 0.00 sec
 Commands  initialized (462), CPU time= 0.01 sec, 486 directives.
 Default parameters read. Elapsed time= 0.03 sec

 Checking input...
 Passed
1


                                         ***  PROGRAM SYSTEM MOLPRO  ***
                         Copyright, University College Cardiff Consultants Limited, 2008

                                    Version 2010.1 linked 9 Dec 2014 15:06:28 


 **********************************************************************************************************************************
 LABEL *   co2h2o                                                                        
 Linux-2.6.32-504.el6.x86_64/node23(x86_64) 64 bit mpp version                           DATE: 06-Dec-16          TIME: 23:51:52  
 **********************************************************************************************************************************

 Patch level:      19
 **********************************************************************************************************************************

 Variable memory set to  100000000 words,  buffer space   230000 words

 SETTING BASIS          =    AVTZ
 SETTING GEOMTYPE       =    XYZ

Geometry recognized as XYZ



 Recomputing integrals since basis changed


 Using spherical harmonics

 Library entry O      S aug-cc-pVTZ          selected for orbital group  1
 Library entry O      P aug-cc-pVTZ          selected for orbital group  1
 Library entry O      D aug-cc-pVTZ          selected for orbital group  1
 Library entry O      F aug-cc-pVTZ          selected for orbital group  1
 Library entry H      S aug-cc-pVTZ          selected for orbital group  2
 Library entry H      P aug-cc-pVTZ          selected for orbital group  2
 Library entry H      D aug-cc-pVTZ          selected for orbital group  2
 Library entry C      S aug-cc-pVTZ          selected for orbital group  3
 Library entry C      P aug-cc-pVTZ          selected for orbital group  3
 Library entry C      D aug-cc-pVTZ          selected for orbital group  3
 Library entry C      F aug-cc-pVTZ          selected for orbital group  3

1PROGRAM * SEWARD (Integral evaluation for generally contracted gaussian basis sets)     Author: Roland Lindh, 1990

 Geometry written to block  1 of record 700


 Point group  Cs  



 ATOMIC COORDINATES

 NR  ATOM    CHARGE       X              Y              Z

   1  O       8.00    1.566002401    2.195286343    0.000000000
   2  O       8.00    1.562010034   -2.196495862    0.000000000
   3  O       8.00   -8.109257820    0.003212912    0.000000000
   4  H       1.00   -9.212164370    1.440528498    0.000000000
   5  H       1.00   -9.211657715   -1.434494357    0.000000000
   6  C       6.00    1.528344714   -0.000566181    0.000000000

 Bond lengths in Bohr (Angstrom)

 1-6  2.196175405  2-6  2.196187724  3-4  1.811706088  3-5  1.811708509
     (1.162165971)     (1.162172490)     (0.958713571)     (0.958714852)

 Bond angles

  1-6-2  178.13918425   4-3-5  105.01947441

 NUCLEAR CHARGE:                   32
 NUMBER OF PRIMITIVE AOS:         322
 NUMBER OF SYMMETRY AOS:          282
 NUMBER OF CONTRACTIONS:          230   ( 152A'  +  78A"  )
 NUMBER OF CORE ORBITALS:           4   (   4A'  +   0A"  )
 NUMBER OF VALENCE ORBITALS:       18   (  14A'  +   4A"  )


 NUCLEAR REPULSION ENERGY   89.34421337


 Eigenvalues of metric

         1 0.345E-03 0.360E-03 0.387E-03 0.391E-03 0.898E-03 0.921E-03 0.164E-02 0.167E-02
         2 0.318E-02 0.348E-02 0.581E-02 0.124E-01 0.135E-01 0.284E-01 0.296E-01 0.313E-01


 Contracted 2-electron integrals neglected if value below      1.0D-11
 AO integral compression algorithm  1   Integral accuracy      1.0D-11

     459.276 MB (compressed) written to integral file ( 27.8%)

     Node minimum: 142.606 MB, node maximum: 164.364 MB


 NUMBER OF SORTED TWO-ELECTRON INTEGRALS:   59950380.     BUFFER LENGTH:  32768
 NUMBER OF SEGMENTS:   4  SEGMENT LENGTH:   15995235      RECORD LENGTH: 524288

 Memory used in sort:      16.55 MW

 SORT1 READ   206516033. AND WROTE    35539233. INTEGRALS IN    103 RECORDS. CPU TIME:     2.87 SEC, REAL TIME:     3.25 SEC
 SORT2 READ   107103310. AND WROTE   179836431. INTEGRALS IN   1632 RECORDS. CPU TIME:     0.96 SEC, REAL TIME:     1.31 SEC

 Node minimum:    59940574.  Node maximum:    59950380. integrals

 OPERATOR DM      FOR CENTER  0  COORDINATES:    0.000000    0.000000    0.000000


 **********************************************************************************************************************************
 DATASETS  * FILE   NREC   LENGTH (MB)   RECORD NAMES
              1      18        3.74       500      610      700      900      950      970     1000      129      960     1100   
                                          VAR    BASINP    GEOM    SYMINP    ZMAT    AOBASIS   BASIS     P2S    ABASIS      S 
                                         1400     1410     1200     1210     1080     1600     1650     1700   
                                           T        V       H0       H01     AOSYM     SMH    MOLCAS    OPER   

 PROGRAMS   *        TOTAL       INT
 CPU TIMES  *         7.98      7.92
 REAL TIME  *         8.94 SEC
 DISK USED  *         1.73 GB      
 GA USED    *         0.00 MB       (max)       0.00 MB       (current)
 **********************************************************************************************************************************

1PROGRAM * RHF-SCF (CLOSED SHELL)       Authors: W. Meyer, H.-J. Werner


 NUMBER OF ELECTRONS:      16+   16-
 CONVERGENCE THRESHOLDS:    1.00E-05 (Density)    1.00E-07 (Energy)
 MAX. NUMBER OF ITERATIONS:       60
 INTERPOLATION TYPE:            DIIS
 INTERPOLATION STEPS:              2 (START)      1 (STEP)
 LEVEL SHIFTS:                  0.00 (CLOSED)  0.00 (OPEN) 



 Orbital guess generated from atomic densities. Full valence occupancy:   18   4

 Molecular orbital dump at record        2100.2

 Initial alpha occupancy:  13   3
 Initial beta  occupancy:  13   3
 Wave function symmetry:    1

 ITERATION    DDIFF          GRAD             ENERGY        2-EL.EN.            DIPOLE MOMENTS         DIIS
    1      0.000D+00      0.000D+00      -263.66156088    374.508442   -1.18424   -0.00012    0.00000    0
    2      0.000D+00      0.628D-02      -263.72660362    369.847247   -0.71217   -0.00009    0.00000    1
    3      0.101D-01      0.425D-02      -263.76946949    372.415580   -0.82808   -0.00008    0.00000    2
    4      0.414D-02      0.402D-03      -263.76996446    372.206977   -0.83110   -0.00009    0.00000    3
    5      0.486D-03      0.117D-03      -263.77002247    372.206988   -0.82597   -0.00008    0.00000    4
    6      0.181D-03      0.474D-04      -263.77002968    372.221934   -0.82669   -0.00009    0.00000    5
    7      0.605D-04      0.115D-04      -263.77003041    372.213484   -0.82625   -0.00009    0.00000    6
    8      0.197D-04      0.254D-05      -263.77003046    372.214793   -0.82626   -0.00009    0.00000    7
    9      0.541D-05      0.850D-06      -263.77003046    372.214592   -0.82623   -0.00009    0.00000    0

 Final occupancy:  13   3

 !RHF STATE 1.1 Energy               -263.770030461756
 Nuclear energy                        89.34421337
 One-electron energy                 -539.22153968
 Two-electron energy                  186.10729585
 Virial quotient                       -1.00183515
 !RHF STATE 1.1 Dipole moment          -0.82622990    -0.00008591     0.00000000
 Dipole moment /Debye                  -2.09992940    -0.00021836     0.00000000

 Orbital energies:

         1.1          2.1          3.1          4.1          5.1          6.1          7.1          8.1          9.1         10.1
    -20.645856   -20.645810   -20.569502   -11.454787    -1.523516    -1.470450    -1.354758    -0.793944    -0.736241    -0.720262

        11.1         12.1         13.1         14.1         15.1
     -0.707423    -0.586238    -0.537250     0.027993     0.047127

         1.2          2.2          3.2          4.2          5.2
     -0.707643    -0.537356    -0.512439     0.078962     0.159923


 **********************************************************************************************************************************
 DATASETS  * FILE   NREC   LENGTH (MB)   RECORD NAMES
              1      18        3.76       500      610      700      900      950      970     1000      129      960     1100   
                                          VAR    BASINP    GEOM    SYMINP    ZMAT    AOBASIS   BASIS     P2S    ABASIS      S 
                                         1400     1410     1200     1210     1080     1600     1650     1700   
                                           T        V       H0       H01     AOSYM     SMH    MOLCAS    OPER   

              2       3        0.96       700     1000     2100   
                                         GEOM     BASIS     RHF  

 PROGRAMS   *        TOTAL        HF       INT
 CPU TIMES  *        12.48      4.50      7.92
 REAL TIME  *        13.66 SEC
 DISK USED  *         1.76 GB      
 SF USED    *         0.12 MB      
 GA USED    *         0.00 MB       (max)       0.00 MB       (current)
 **********************************************************************************************************************************


1PROGRAM * CCSD (Closed-shell coupled cluster)     Authors: C. Hampel, H.-J. Werner, 1991, M. Deegan, P.J. Knowles, 1992

                                  CCSD-F12 implementation by  H.-J. Werner, 2007

                   Density fitting integral evaluation by F.R. Manby, 2003,2007, G. Knizia, 2010

 Basis set CC-PVTZ/JKFIT generated.      Number of basis functions:   376 
 Basis set AUG-CC-PVTZ/MP2FIT generated. Number of basis functions:   516 

 Convergence thresholds:  THRVAR = 1.00D-08  THRDEN = 1.00D-06

 CCSD(T)     terms to be evaluated (factor= 1.000)


 Number of core orbitals:           4 (   4   0 )
 Number of closed-shell orbitals:  12 (   9   3 )
 Number of external orbitals:     214 ( 139  75 )

 Molecular orbitals read from record     2100.2  Type=RHF/CANONICAL (state 1.1)

 MP2-F12 correlation treatment (H.-J. Werner, 2006)
 --------------------------------------------------

 Using MP2-F12 with ansatz 3C(FIX)

 Using projected zeroth-order Hamiltonian (+Z)

 FOCKRIB=T FOCKRIC=T FOCKRIP=T CABSP=T CABSA=T CABSK=T CABSF=T GBC=F EBC=F DMAT=T NOFIK=T NOPAO=1 SOLVE=-1  USEPAO=0
 EXCH_A= T EXCH_B= F EXCH_C= F EXCH_P= F
 
 Geminal basis:    OPTFULL  GEM_TYPE=SLATER  BETA=1.0  NGEM=6

 Optimizing Gaussian exponents for each gem_beta

 Geminal optimization for beta= 1.0000
 Weight function:   m=0, omega= 1.4646

 Augmented Hessian optimization of geminal fit. Trust ratio= 0.40000
 Convergence reached after   2 iterations. Final gradient= 8.24D-16, Step= 4.32D-06, Delta= 1.28D-09
 
 Alpha:                 0.19532     0.81920     2.85917     9.50073    35.69989   197.79328
 Coeff:                 0.27070     0.30552     0.18297     0.10986     0.06810     0.04224
 

 Symmetry turned off. Reference energy:       -263.770030461757

 All pairs explicitly correlated. Number of r12-pairs:           78
 
 AO(A)-basis ORBITAL           loaded. Number of functions:     230
 RI(R)-basis CC-PVTZ/JKFIT     loaded. Number of functions:     376
 DF-basis CC-PVTZ/JKFIT        loaded. Number of functions:     376

 Screening thresholds:   THRAO=  1.00D-10  THRMO=  1.00D-09  THRPROD=  1.00D-09
                         THRSW=  1.00D-05  THROV=  1.00D-12  THRF12=   1.00D-08

 CPU time for Fock operators                      0.97 sec
 
 Construction of ABS:
 Smallest eigenvalue of S          2.57E-04  (threshold= 1.00E-08)
 Ratio eigmin/eigmax               1.83E-06  (threshold= 1.00E-09)
 Smallest eigenvalue of S kept     2.57E-04  (threshold= 2.57E-04, 0 functions deleted, 376 kept)
 
 Construction of CABS:
 Smallest eigenvalue of S          2.30E-08  (threshold= 1.00E-08)
 Ratio eigmin/eigmax               2.30E-08  (threshold= 1.00E-09)
 Smallest eigenvalue of S kept     2.30E-08  (threshold= 2.30E-08, 0 functions deleted, 376 kept)
 
 CPU time for CABS singles                        0.17 sec

 CABS-singles contribution of  -0.01592111 patched into reference energy.
 New reference energy        -263.78595157
 
 AO(A)-basis ORBITAL           loaded. Number of functions:     230
 RI(R)-basis CC-PVTZ/JKFIT     loaded. Number of functions:     376
 DF-basis AUG-CC-PVTZ/MP2FIT   loaded. Number of functions:     516

 Screening thresholds:   THRAO=  1.00D-10  THRMO=  1.00D-09  THRPROD=  1.00D-09
                         THRSW=  1.00D-05  THROV=  1.00D-12  THRF12=   1.00D-08

 CPU time for 3-index integral evaluation         2.58 sec
 CPU time for first  half transformation          0.30 sec ( 9292.8 MFLOP/sec)
 CPU time for second half transformation          0.01 sec (10576.5 MFLOP/sec)
 CPU time for sorting                             0.15 sec
 CPU time for fitting                             0.06 sec (23217.5 MFLOP/sec)
 CPU time for tilde quantities                    0.06 sec (30814.7 MFLOP/sec)
 CPU time for assembly                            0.84 sec (28126.5 MFLOP/sec)
 CPU time for tranop_f12                          0.99 sec (30809.5 MFLOP/sec)
 CPU time for f12 integrals (total)               7.17 sec
 F12-matrices built in  3 passes.
 F12-matrices built in  3 passes.
 F12-matrices built in  3 passes.
 F12-matrices built in  3 passes.
 FC-matrix built in  3 passes.
 CPU time for f12 matrices (total)                0.53 sec

 Diagonal F12 approximation with fixed coefficients:  TSING= 0.500,  TTRIP= 0.250 (scaled by -1/beta)

 DF-MP2-F12 energy corrections:
 ------------------------------
 Approx.                                    Singlet             Triplet             Total
 DF-MP2-F12/3*C(DX,FIX)                -0.097441999449     -0.016932121942     -0.114374121391
 DF-MP2-F12/3*C(FIX)                   -0.079861311192     -0.013394477718     -0.093255788910
 DF-MP2-F12/3C(FIX)                    -0.080222317637     -0.013417931002     -0.093640248639

 DF-MP2-F12 correlation energies:
 --------------------------------
 Approx.                                    Singlet             Triplet             Ecorr            Total Energy
 DF-MP2                                -0.537685897863     -0.343068703477     -0.880754601339   -264.666706169771
 DF-MP2-F12/3*C(DX,FIX)                -0.635127897311     -0.360000825419     -0.995128722730   -264.781080291161
 DF-MP2-F12/3*C(FIX)                   -0.617547209055     -0.356463181195     -0.974010390249   -264.759961958681
 DF-MP2-F12/3C(FIX)                    -0.617908215500     -0.356486634479     -0.974394849978   -264.760346418410

 SCS-DF-MP2 energies (F_SING= 1.20000  F_TRIP= 0.62222  F_PARALLEL= 0.33333):
 ----------------------------------------------------------------------------
 SCS-DF-MP2                            -0.858688048487   -264.644639616919
 SCS-DF-MP2-F12/3*C(DX,FIX)            -0.986153990367   -264.772105558799
 SCS-DF-MP2-F12/3*C(FIX)               -0.962855963609   -264.748807532040
 SCS-DF-MP2-F12/3C(FIX)                -0.963303764497   -264.749255332929

 Symmetry restored.
 Symmetry transformation completed.

 Number of N-1 electron functions:              12
 Number of N-2 electron functions:              78
 Number of singly external CSFs:              1476
 Number of doubly external CSFs:           1686804
 Total number of CSFs:                     1688281

 Pair and operator lists are different

 Length of J-op  integral file:             466.42 MB
 Length of K-op  integral file:             526.62 MB
 Length of 3-ext integral record:             0.00 MB

 Memory could be reduced to 76.61 Mwords without degradation in triples

 Integral transformation finished. Total CPU:   4.85 sec, npass=  1  Memory used:  24.61 MW

 Reference energy:                   -263.78595157

 Adding F12 terms to K(Cij), methodcc=6,  factor=1.0

 ITER.      SQ.NORM     CORR.ENERGY   TOTAL ENERGY   ENERGY CHANGE        DEN1      VAR(S)    VAR(P)  DIIS     TIME
   1      1.20211177    -0.86272002  -264.64867159     0.01805085     0.04665910  0.72D-02  0.56D-02  1  1    17.06
   2      1.21641578    -0.85850169  -264.64445326     0.00421833    -0.02013931  0.86D-04  0.59D-03  2  2    20.21
   3      1.22177592    -0.85859943  -264.64455100    -0.00009774    -0.00236434  0.13D-03  0.32D-04  3  3    23.34
   4      1.22457761    -0.85847183  -264.64442340     0.00012759    -0.00141110  0.76D-05  0.41D-05  4  4    26.49
   5      1.22560726    -0.85843419  -264.64438576     0.00003764    -0.00036611  0.56D-06  0.29D-06  5  5    30.40
   6      1.22576938    -0.85840733  -264.64435890     0.00002686    -0.00000805  0.40D-07  0.24D-07  6  6    33.56
   7      1.22579873    -0.85840491  -264.64435648     0.00000242    -0.00000621  0.26D-08  0.40D-08  6  4    37.06
   8      1.22579903    -0.85840442  -264.64435599     0.00000049     0.00000194  0.39D-09  0.27D-09  6  1    40.19
   9      1.22579965    -0.85840449  -264.64435606    -0.00000007     0.00000056  0.26D-10  0.21D-10  6  2    43.35

 Norm of t1 vector:      0.10595392      S-energy:    -0.00000003      T1 diagnostic:  0.01529313
                                                                       D1 diagnostic:  0.04498555

 Adding energy correction from Wij-K(Fij), methodcc=6  factor=1.0
 
  CCSD correlation energy              -0.858404486764
  MP2-F12 correction (uncoupled)       -0.092484115172
  C*T doubles correction               -0.001474493947
  f12b correction                       0.015406428644


 Total CPU time for triples:     77.19 sec


 RESULTS
 =======

  Reference energy                   -263.770030461756
  F12 singles correction               -0.015921106675

 F12 singles corrections added to reference energy

  New reference energy               -263.785951568431

  F12a singlet correction              -0.080422080209
  F12a triplet correction              -0.013536528910
  F12a total correction                -0.093958609119

 F12a corrections for ansatz F12/3C(FIX) added to CCSD energy
 
  CCSD-F12a singlet pair energy        -0.641843925281
  CCSD-F12a triplet pair energy        -0.310519144967
  CCSD-F12a correlation energy         -0.952363095883

  Triples (T) contribution             -0.037635274111
  Total correlation energy             -0.989998369994

  CCSD-F12a total energy             -264.738314664315
  CCSD[T]-F12a energy                -264.778491286559
  CCSD-T-F12a energy                 -264.775013608585
 !CCSD(T)-F12a total energy          -264.775949938426

 F12b corrections for ansatz F12/3C(FIX) added to CCSD(T)-F12a energy

  CCSD-F12b singlet pair energy        -0.627660903610
  CCSD-F12b triplet pair energy        -0.309295737995
  CCSD-F12b correlation energy         -0.936956667239

  Triples (T) contribution             -0.037635274111
  Total correlation energy             -0.974591941350

  CCSD-F12b total energy             -264.722908235671
  CCSD[T]-F12b energy                -264.763084857915
  CCSD-T-F12b energy                 -264.759607179941
 !CCSD(T)-F12b total energy          -264.760543509782

 Timing summary (sec):

 STEP                 CPU(USER)    SYS     CPU(TOT)    WALL
 Transformation          4.88      0.62      5.50      5.50
 CCSD iterations        29.23      1.62     30.85     31.49
 Triples                77.19      1.52     78.71     78.69
 MP2-F12                 9.26      1.28     10.54     10.54
 F12b energy             2.05      0.05      2.10      2.10

 Program statistics:

 Available memory in ccsd:                99998934
 Min. memory needed in ccsd:               4458306
 Max. memory used in ccsd:                 5958390
 Max. memory used in cckext:               6352469 (10 integral passes)



 **********************************************************************************************************************************
 DATASETS  * FILE   NREC   LENGTH (MB)   RECORD NAMES
              1      20      269.66       500      610      700      900      950      970     1000      129      960     1100   
                                          VAR    BASINP    GEOM    SYMINP    ZMAT    AOBASIS   BASIS     P2S    ABASIS      S 
                                         1400     1410     1200     1210     1080     1600     1650     1700      960(1)  1380   
                                           T        V       H0       H01     AOSYM     SMH    MOLCAS    OPER    ABASIS    JKOP   

              2       5        1.55       700     1000     2100     7360     7350   
                                         GEOM     BASIS     RHF    F12ABS    EF12   

 PROGRAMS   *        TOTAL   CCSD(T)        HF       INT
 CPU TIMES  *       135.33    122.85      4.50      7.92
 REAL TIME  *       142.33 SEC
 DISK USED  *         2.20 GB      
 SF USED    *         1.53 GB      
 GA USED    *         2.40 MB       (max)       0.00 MB       (current)
 **********************************************************************************************************************************

     CCSD(T)-F12        HF-SCF  
   -264.76054351   -263.77003046
 **********************************************************************************************************************************
 Variable memory released
