
 Primary working directories    : /scratch/kee
 Secondary working directories  : /scratch/kee
 Wavefunction directory         : /home/kee/wfu/
 Main file repository           : /scratch/kee/

 ARCHNAME  : Linux/x86_64
 FC        : /opt/intel/composer_xe_2015.0.090/bin/intel64/ifort
 FCVERSION : 15.0.0
 BLASLIB   : -L/opt/intel/mkl/lib/intel64 -lmkl_intel_ilp64 -lmkl_sequential -lmkl_core
 id        : emory

 Nodes     nprocs
 node21       3
 Number of processes for MPI-2 version of Molpro:   nprocs(total)=    4   nprocs(compute)=    3   nprocs(helper)=    1
 ga_uses_ma=false, calling ma_init with nominal heap.
 GA-space will be limited to   8.0 MW (determined by -G option)

 Using customized tuning parameters: mindgm=7; mindgv=32; mindgc=1; mindgr=1; noblas=0; mincuda=1000; minvec=7
 default implementation of scratch files=sf  

 ***,co2h2o
 memory,100,m
 basis avtz
 geomtype = xyz
 geometry = {
 6
    -264.76489694
 O     0.82869278    1.16169550    0.00000000
 O     0.82658011   -1.16233555    0.00000000
 O   -16.49123348    0.00648406    0.00000000
 H   -17.07486649    0.76707871    0.00000000
 H   -17.07459838   -0.75431786    0.00000000
 C     0.80876519   -0.00029961    0.00000000
 }
 hf
 ccsd(t)-f12
 ---

 Variables initialized (665), CPU time= 0.00 sec
 Commands  initialized (462), CPU time= 0.01 sec, 486 directives.
 Default parameters read. Elapsed time= 0.04 sec

 Checking input...
 Passed
1


                                         ***  PROGRAM SYSTEM MOLPRO  ***
                         Copyright, University College Cardiff Consultants Limited, 2008

                                    Version 2010.1 linked 9 Dec 2014 15:06:28 


 **********************************************************************************************************************************
 LABEL *   co2h2o                                                                        
 Linux-2.6.32-504.el6.x86_64/node21(x86_64) 64 bit mpp version                           DATE: 12-Dec-16          TIME: 19:36:53  
 **********************************************************************************************************************************

 Patch level:      19
 **********************************************************************************************************************************

 Variable memory set to  100000000 words,  buffer space   230000 words

 SETTING BASIS          =    AVTZ
 SETTING GEOMTYPE       =    XYZ

Geometry recognized as XYZ



 Recomputing integrals since basis changed


 Using spherical harmonics

 Library entry O      S aug-cc-pVTZ          selected for orbital group  1
 Library entry O      P aug-cc-pVTZ          selected for orbital group  1
 Library entry O      D aug-cc-pVTZ          selected for orbital group  1
 Library entry O      F aug-cc-pVTZ          selected for orbital group  1
 Library entry H      S aug-cc-pVTZ          selected for orbital group  2
 Library entry H      P aug-cc-pVTZ          selected for orbital group  2
 Library entry H      D aug-cc-pVTZ          selected for orbital group  2
 Library entry C      S aug-cc-pVTZ          selected for orbital group  3
 Library entry C      P aug-cc-pVTZ          selected for orbital group  3
 Library entry C      D aug-cc-pVTZ          selected for orbital group  3
 Library entry C      F aug-cc-pVTZ          selected for orbital group  3

1PROGRAM * SEWARD (Integral evaluation for generally contracted gaussian basis sets)     Author: Roland Lindh, 1990

 Geometry written to block  1 of record 700


 Point group  Cs  



 ATOMIC COORDINATES

 NR  ATOM    CHARGE       X              Y              Z

   1  O       8.00    1.566002401    2.195286343    0.000000000
   2  O       8.00    1.562010034   -2.196495862    0.000000000
   3  O       8.00  -31.163914847    0.012253098    0.000000000
   4  H       1.00  -32.266821397    1.449568683    0.000000000
   5  H       1.00  -32.266314742   -1.425454171    0.000000000
   6  C       6.00    1.528344714   -0.000566181    0.000000000

 Bond lengths in Bohr (Angstrom)

 1-6  2.196175405  2-6  2.196187724  3-4  1.811706088  3-5  1.811708509
     (1.162165971)     (1.162172490)     (0.958713571)     (0.958714852)

 Bond angles

  1-6-2  178.13918425   4-3-5  105.01947441

 NUCLEAR CHARGE:                   32
 NUMBER OF PRIMITIVE AOS:         322
 NUMBER OF SYMMETRY AOS:          282
 NUMBER OF CONTRACTIONS:          230   ( 152A'  +  78A"  )
 NUMBER OF CORE ORBITALS:           4   (   4A'  +   0A"  )
 NUMBER OF VALENCE ORBITALS:       18   (  14A'  +   4A"  )


 NUCLEAR REPULSION ENERGY   74.13249647


 Eigenvalues of metric

         1 0.349E-03 0.384E-03 0.393E-03 0.420E-03 0.902E-03 0.922E-03 0.167E-02 0.175E-02
         2 0.318E-02 0.348E-02 0.595E-02 0.124E-01 0.136E-01 0.296E-01 0.297E-01 0.319E-01


 Contracted 2-electron integrals neglected if value below      1.0D-11
 AO integral compression algorithm  1   Integral accuracy      1.0D-11

     225.182 MB (compressed) written to integral file ( 43.0%)

     Node minimum: 63.701 MB, node maximum: 96.207 MB


 NUMBER OF SORTED TWO-ELECTRON INTEGRALS:   59950380.     BUFFER LENGTH:  32768
 NUMBER OF SEGMENTS:   4  SEGMENT LENGTH:   15995235      RECORD LENGTH: 524288

 Memory used in sort:      16.55 MW

 SORT1 READ    65358563. AND WROTE    15729449. INTEGRALS IN     47 RECORDS. CPU TIME:     0.85 SEC, REAL TIME:     0.99 SEC
 SORT2 READ    46977094. AND WROTE   179836431. INTEGRALS IN   1101 RECORDS. CPU TIME:     0.50 SEC, REAL TIME:     0.63 SEC

 Node minimum:    59940574.  Node maximum:    59950380. integrals

 OPERATOR DM      FOR CENTER  0  COORDINATES:    0.000000    0.000000    0.000000


 **********************************************************************************************************************************
 DATASETS  * FILE   NREC   LENGTH (MB)   RECORD NAMES
              1      18        3.74       500      610      700      900      950      970     1000      129      960     1100   
                                          VAR    BASINP    GEOM    SYMINP    ZMAT    AOBASIS   BASIS     P2S    ABASIS      S 
                                         1400     1410     1200     1210     1080     1600     1650     1700   
                                           T        V       H0       H01     AOSYM     SMH    MOLCAS    OPER   

 PROGRAMS   *        TOTAL       INT
 CPU TIMES  *         3.16      3.09
 REAL TIME  *         3.53 SEC
 DISK USED  *       816.54 MB      
 GA USED    *         0.00 MB       (max)       0.00 MB       (current)
 **********************************************************************************************************************************

1PROGRAM * RHF-SCF (CLOSED SHELL)       Authors: W. Meyer, H.-J. Werner


 NUMBER OF ELECTRONS:      16+   16-
 CONVERGENCE THRESHOLDS:    1.00E-05 (Density)    1.00E-07 (Energy)
 MAX. NUMBER OF ITERATIONS:       60
 INTERPOLATION TYPE:            DIIS
 INTERPOLATION STEPS:              2 (START)      1 (STEP)
 LEVEL SHIFTS:                  0.00 (CLOSED)  0.00 (OPEN) 



 Orbital guess generated from atomic densities. Full valence occupancy:   18   4

 Molecular orbital dump at record        2100.2

 Initial alpha occupancy:  13   3
 Initial beta  occupancy:  13   3
 Wave function symmetry:    1

 ITERATION    DDIFF          GRAD             ENERGY        2-EL.EN.            DIPOLE MOMENTS         DIIS
    1      0.000D+00      0.000D+00      -263.66021843    343.723218   -1.18419   -0.00012    0.00000    0
    2      0.000D+00      0.630D-02      -263.72550074    339.182450   -0.67903   -0.00010    0.00000    1
    3      0.101D-01      0.428D-02      -263.76888554    341.737912   -0.80545   -0.00009    0.00000    2
    4      0.416D-02      0.402D-03      -263.76938069    341.524607   -0.80893   -0.00010    0.00000    3
    5      0.485D-03      0.117D-03      -263.76943868    341.527811   -0.80344   -0.00009    0.00000    4
    6      0.181D-03      0.471D-04      -263.76944583    341.542063   -0.80410   -0.00010    0.00000    5
    7      0.603D-04      0.116D-04      -263.76944656    341.533782   -0.80365   -0.00010    0.00000    6
    8      0.197D-04      0.254D-05      -263.76944661    341.535077   -0.80366   -0.00010    0.00000    7
    9      0.541D-05      0.852D-06      -263.76944661    341.534891   -0.80363   -0.00010    0.00000    0

 Final occupancy:  13   3

 !RHF STATE 1.1 Energy               -263.769446610234
 Nuclear energy                        74.13249647
 One-electron energy                 -508.66938837
 Two-electron energy                  170.76744529
 Virial quotient                       -1.00182789
 !RHF STATE 1.1 Dipole moment          -0.80363178    -0.00009507     0.00000000
 Dipole moment /Debye                  -2.04249447    -0.00024163     0.00000000

 Orbital energies:

         1.1          2.1          3.1          4.1          5.1          6.1          7.1          8.1          9.1         10.1
    -20.652761   -20.652716   -20.567312   -11.461514    -1.530424    -1.477320    -1.352556    -0.800627    -0.742872    -0.718093

        11.1         12.1         13.1         14.1         15.1
     -0.714472    -0.583756    -0.544076     0.029389     0.047584

         1.2          2.2          3.2          4.2          5.2
     -0.714482    -0.544100    -0.510168     0.073561     0.158417


 **********************************************************************************************************************************
 DATASETS  * FILE   NREC   LENGTH (MB)   RECORD NAMES
              1      18        3.76       500      610      700      900      950      970     1000      129      960     1100   
                                          VAR    BASINP    GEOM    SYMINP    ZMAT    AOBASIS   BASIS     P2S    ABASIS      S 
                                         1400     1410     1200     1210     1080     1600     1650     1700   
                                           T        V       H0       H01     AOSYM     SMH    MOLCAS    OPER   

              2       3        0.96       700     1000     2100   
                                         GEOM     BASIS     RHF  

 PROGRAMS   *        TOTAL        HF       INT
 CPU TIMES  *         5.55      2.39      3.09
 REAL TIME  *         6.05 SEC
 DISK USED  *       840.92 MB      
 SF USED    *         0.12 MB      
 GA USED    *         0.00 MB       (max)       0.00 MB       (current)
 **********************************************************************************************************************************


1PROGRAM * CCSD (Closed-shell coupled cluster)     Authors: C. Hampel, H.-J. Werner, 1991, M. Deegan, P.J. Knowles, 1992

                                  CCSD-F12 implementation by  H.-J. Werner, 2007

                   Density fitting integral evaluation by F.R. Manby, 2003,2007, G. Knizia, 2010

 Basis set CC-PVTZ/JKFIT generated.      Number of basis functions:   376 
 Basis set AUG-CC-PVTZ/MP2FIT generated. Number of basis functions:   516 

 Convergence thresholds:  THRVAR = 1.00D-08  THRDEN = 1.00D-06

 CCSD(T)     terms to be evaluated (factor= 1.000)


 Number of core orbitals:           4 (   4   0 )
 Number of closed-shell orbitals:  12 (   9   3 )
 Number of external orbitals:     214 ( 139  75 )

 Molecular orbitals read from record     2100.2  Type=RHF/CANONICAL (state 1.1)

 MP2-F12 correlation treatment (H.-J. Werner, 2006)
 --------------------------------------------------

 Using MP2-F12 with ansatz 3C(FIX)

 Using projected zeroth-order Hamiltonian (+Z)

 FOCKRIB=T FOCKRIC=T FOCKRIP=T CABSP=T CABSA=T CABSK=T CABSF=T GBC=F EBC=F DMAT=T NOFIK=T NOPAO=1 SOLVE=-1  USEPAO=0
 EXCH_A= T EXCH_B= F EXCH_C= F EXCH_P= F
 
 Geminal basis:    OPTFULL  GEM_TYPE=SLATER  BETA=1.0  NGEM=6

 Optimizing Gaussian exponents for each gem_beta

 Geminal optimization for beta= 1.0000
 Weight function:   m=0, omega= 1.4646

 Augmented Hessian optimization of geminal fit. Trust ratio= 0.40000
 Convergence reached after   2 iterations. Final gradient= 8.24D-16, Step= 4.32D-06, Delta= 1.28D-09
 
 Alpha:                 0.19532     0.81920     2.85917     9.50073    35.69989   197.79328
 Coeff:                 0.27070     0.30552     0.18297     0.10986     0.06810     0.04224
 

 Symmetry turned off. Reference energy:       -263.769446610234

 All pairs explicitly correlated. Number of r12-pairs:           78
 
 AO(A)-basis ORBITAL           loaded. Number of functions:     230
 RI(R)-basis CC-PVTZ/JKFIT     loaded. Number of functions:     376
 DF-basis CC-PVTZ/JKFIT        loaded. Number of functions:     376

 Screening thresholds:   THRAO=  1.00D-10  THRMO=  1.00D-09  THRPROD=  1.00D-09
                         THRSW=  1.00D-05  THROV=  1.00D-12  THRF12=   1.00D-08

 CPU time for Fock operators                      0.76 sec
 
 Construction of ABS:
 Smallest eigenvalue of S          2.57E-04  (threshold= 1.00E-08)
 Ratio eigmin/eigmax               1.83E-06  (threshold= 1.00E-09)
 Smallest eigenvalue of S kept     2.57E-04  (threshold= 2.57E-04, 0 functions deleted, 376 kept)
 
 Construction of CABS:
 Smallest eigenvalue of S          2.30E-08  (threshold= 1.00E-08)
 Ratio eigmin/eigmax               2.30E-08  (threshold= 1.00E-09)
 Smallest eigenvalue of S kept     2.30E-08  (threshold= 2.30E-08, 0 functions deleted, 376 kept)
 
 CPU time for CABS singles                        0.15 sec

 CABS-singles contribution of  -0.01592491 patched into reference energy.
 New reference energy        -263.78537152
 
 AO(A)-basis ORBITAL           loaded. Number of functions:     230
 RI(R)-basis CC-PVTZ/JKFIT     loaded. Number of functions:     376
 DF-basis AUG-CC-PVTZ/MP2FIT   loaded. Number of functions:     516

 Screening thresholds:   THRAO=  1.00D-10  THRMO=  1.00D-09  THRPROD=  1.00D-09
                         THRSW=  1.00D-05  THROV=  1.00D-12  THRF12=   1.00D-08

 CPU time for 3-index integral evaluation         1.26 sec
 CPU time for first  half transformation          0.04 sec (21164.1 MFLOP/sec)
 CPU time for sorting                             0.06 sec
 CPU time for fitting                             0.06 sec (23217.5 MFLOP/sec)
 CPU time for tilde quantities                    0.04 sec (46222.0 MFLOP/sec)
 CPU time for assembly                            0.68 sec (34749.1 MFLOP/sec)
 CPU time for tranop_f12                          0.79 sec (38541.7 MFLOP/sec)
 CPU time for f12 integrals (total)               4.71 sec
 F12-matrices built in  3 passes.
 F12-matrices built in  3 passes.
 F12-matrices built in  3 passes.
 F12-matrices built in  3 passes.
 FC-matrix built in  3 passes.
 CPU time for f12 matrices (total)                0.43 sec

 Diagonal F12 approximation with fixed coefficients:  TSING= 0.500,  TTRIP= 0.250 (scaled by -1/beta)

 DF-MP2-F12 energy corrections:
 ------------------------------
 Approx.                                    Singlet             Triplet             Total
 DF-MP2-F12/3*C(DX,FIX)                -0.097454513212     -0.016934568790     -0.114389082002
 DF-MP2-F12/3*C(FIX)                   -0.079869890848     -0.013396598559     -0.093266489408
 DF-MP2-F12/3C(FIX)                    -0.080230701188     -0.013419723748     -0.093650424937

 DF-MP2-F12 correlation energies:
 --------------------------------
 Approx.                                    Singlet             Triplet             Ecorr            Total Energy
 DF-MP2                                -0.537728684342     -0.343071324026     -0.880800008368   -264.666171529694
 DF-MP2-F12/3*C(DX,FIX)                -0.635183197554     -0.360005892816     -0.995189090370   -264.780560611696
 DF-MP2-F12/3*C(FIX)                   -0.617598575190     -0.356467922585     -0.974066497775   -264.759438019102
 DF-MP2-F12/3C(FIX)                    -0.617959385530     -0.356491047774     -0.974450433305   -264.759821954631

 SCS-DF-MP2 energies (F_SING= 1.20000  F_TRIP= 0.62222  F_PARALLEL= 0.33333):
 ----------------------------------------------------------------------------
 SCS-DF-MP2                            -0.858741022826   -264.644112544153
 SCS-DF-MP2-F12/3*C(DX,FIX)            -0.986223503706   -264.771595025032
 SCS-DF-MP2-F12/3*C(FIX)               -0.962920553170   -264.748292074496
 SCS-DF-MP2-F12/3C(FIX)                -0.963367914585   -264.748739435911

 Symmetry restored.
 Symmetry transformation completed.

 Number of N-1 electron functions:              12
 Number of N-2 electron functions:              78
 Number of singly external CSFs:              1476
 Number of doubly external CSFs:           1686804
 Total number of CSFs:                     1688281

 Pair and operator lists are different

 Length of J-op  integral file:             466.42 MB
 Length of K-op  integral file:             526.62 MB
 Length of 3-ext integral record:             0.00 MB

 Memory could be reduced to 76.61 Mwords without degradation in triples

 Integral transformation finished. Total CPU:   3.28 sec, npass=  1  Memory used:  24.61 MW

 Reference energy:                   -263.78537152

 Adding F12 terms to K(Cij), methodcc=6,  factor=1.0

 ITER.      SQ.NORM     CORR.ENERGY   TOTAL ENERGY   ENERGY CHANGE        DEN1      VAR(S)    VAR(P)  DIIS     TIME
   1      1.20215082    -0.86275094  -264.64812247     0.01806554     0.04669934  0.72D-02  0.56D-02  1  1    11.63
   2      1.21646392    -0.85852322  -264.64389474     0.00422773    -0.02015343  0.86D-04  0.59D-03  2  2    13.68
   3      1.22182408    -0.85861918  -264.64399070    -0.00009596    -0.00236381  0.13D-03  0.32D-04  3  3    15.73
   4      1.22462571    -0.85849130  -264.64386282     0.00012788    -0.00141123  0.76D-05  0.41D-05  4  4    17.80
   5      1.22565571    -0.85845359  -264.64382511     0.00003771    -0.00036641  0.56D-06  0.29D-06  5  5    19.85
   6      1.22581790    -0.85842672  -264.64379825     0.00002686    -0.00000805  0.40D-07  0.24D-07  6  6    21.91
   7      1.22584726    -0.85842430  -264.64379582     0.00000242    -0.00000622  0.25D-08  0.40D-08  6  4    23.97
   8      1.22584756    -0.85842381  -264.64379533     0.00000049     0.00000195  0.39D-09  0.27D-09  6  1    26.28
   9      1.22584817    -0.85842388  -264.64379540    -0.00000007     0.00000056  0.26D-10  0.21D-10  6  2    28.57

 Norm of t1 vector:      0.10595815      S-energy:    -0.00000002      T1 diagnostic:  0.01529374
                                                                       D1 diagnostic:  0.04494263

 Adding energy correction from Wij-K(Fij), methodcc=6  factor=1.0
 
  CCSD correlation energy              -0.858423878489
  MP2-F12 correction (uncoupled)       -0.092493420896
  C*T doubles correction               -0.001475759273
  f12b correction                       0.015407301011


 Total CPU time for triples:     72.37 sec


 RESULTS
 =======

  Reference energy                   -263.769446610234
  F12 singles correction               -0.015924911092

 F12 singles corrections added to reference energy

  New reference energy               -263.785371521326

  F12a singlet correction              -0.080430715853
  F12a triplet correction              -0.013538464315
  F12a total correction                -0.093969180169

 F12a corrections for ansatz F12/3C(FIX) added to CCSD energy
 
  CCSD-F12a singlet pair energy        -0.641895700263
  CCSD-F12a triplet pair energy        -0.310497333942
  CCSD-F12a correlation energy         -0.952393058658

  Triples (T) contribution             -0.037639324554
  Total correlation energy             -0.990032383212

  CCSD-F12a total energy             -264.737764579984
  CCSD[T]-F12a energy                -264.777947719690
  CCSD-T-F12a energy                 -264.774466238816
 !CCSD(T)-F12a total energy          -264.775403904538

 F12b corrections for ansatz F12/3C(FIX) added to CCSD(T)-F12a energy

  CCSD-F12b singlet pair energy        -0.627711752556
  CCSD-F12b triplet pair energy        -0.309273980638
  CCSD-F12b correlation energy         -0.936985757647

  Triples (T) contribution             -0.037639324554
  Total correlation energy             -0.974625082201

  CCSD-F12b total energy             -264.722357278973
  CCSD[T]-F12b energy                -264.762540418679
  CCSD-T-F12b energy                 -264.759058937805
 !CCSD(T)-F12b total energy          -264.759996603527

 Timing summary (sec):

 STEP                 CPU(USER)    SYS     CPU(TOT)    WALL
 Transformation          3.31      0.49      3.80      3.80
 CCSD iterations        18.87      1.27     20.14     20.61
 Triples                72.37      1.50     73.87     73.83
 MP2-F12                 6.39      1.02      7.41      7.41
 F12b energy             1.39      0.01      1.40      1.40

 Program statistics:

 Available memory in ccsd:                99998934
 Min. memory needed in ccsd:               4458306
 Max. memory used in ccsd:                 5958390
 Max. memory used in cckext:               6352469 (10 integral passes)



 **********************************************************************************************************************************
 DATASETS  * FILE   NREC   LENGTH (MB)   RECORD NAMES
              1      20      269.66       500      610      700      900      950      970     1000      129      960     1100   
                                          VAR    BASINP    GEOM    SYMINP    ZMAT    AOBASIS   BASIS     P2S    ABASIS      S 
                                         1400     1410     1200     1210     1080     1600     1650     1700      960(1)  1380   
                                           T        V       H0       H01     AOSYM     SMH    MOLCAS    OPER    ABASIS    JKOP   

              2       5        1.55       700     1000     2100     7360     7350   
                                         GEOM     BASIS     RHF    F12ABS    EF12   

 PROGRAMS   *        TOTAL   CCSD(T)        HF       INT
 CPU TIMES  *       107.90    102.34      2.39      3.09
 REAL TIME  *       113.35 SEC
 DISK USED  *         1.28 GB      
 SF USED    *         1.53 GB      
 GA USED    *         2.40 MB       (max)       0.00 MB       (current)
 **********************************************************************************************************************************

     CCSD(T)-F12        HF-SCF  
   -264.75999660   -263.76944661
 **********************************************************************************************************************************
 Variable memory released
