
 Primary working directories    : /scratch/kee
 Secondary working directories  : /scratch/kee
 Wavefunction directory         : /home/kee/wfu/
 Main file repository           : /scratch/kee/

 ARCHNAME  : Linux/x86_64
 FC        : /opt/intel/composer_xe_2015.0.090/bin/intel64/ifort
 FCVERSION : 15.0.0
 BLASLIB   : -L/opt/intel/mkl/lib/intel64 -lmkl_intel_ilp64 -lmkl_sequential -lmkl_core
 id        : emory

 Nodes     nprocs
 node24       3
 Number of processes for MPI-2 version of Molpro:   nprocs(total)=    4   nprocs(compute)=    3   nprocs(helper)=    1
 ga_uses_ma=false, calling ma_init with nominal heap.
 GA-space will be limited to   8.0 MW (determined by -G option)

 Using customized tuning parameters: mindgm=7; mindgv=32; mindgc=1; mindgr=1; noblas=0; mincuda=1000; minvec=7
 default implementation of scratch files=sf  

 ***,co2h2o
 memory,100,m
 basis avtz
 geomtype = xyz
 geometry = {
 6
       0.00000000
 O     0.02747900    1.16001200    0.00000000
 O    -0.00936500   -1.16396300    0.00000000
 O     4.77532880   -0.02192021    0.00000000
 H     5.16442380    0.41935379    0.75746400
 H     5.16442380    0.41935379   -0.75746400
 C     0.02536600   -0.00312200    0.00000000
 }
 hf
 ccsd(t)-f12
 ---

 Variables initialized (665), CPU time= 0.01 sec
 Commands  initialized (462), CPU time= 0.01 sec, 486 directives.
 Default parameters read. Elapsed time= 0.03 sec

 Checking input...
 Passed
1


                                         ***  PROGRAM SYSTEM MOLPRO  ***
                         Copyright, University College Cardiff Consultants Limited, 2008

                                    Version 2010.1 linked 9 Dec 2014 15:06:28 


 **********************************************************************************************************************************
 LABEL *   co2h2o                                                                        
 Linux-2.6.32-504.el6.x86_64/node24(x86_64) 64 bit mpp version                           DATE: 14-Dec-16          TIME: 23:59:21  
 **********************************************************************************************************************************

 Patch level:      19
 **********************************************************************************************************************************

 Variable memory set to  100000000 words,  buffer space   230000 words

 SETTING BASIS          =    AVTZ
 SETTING GEOMTYPE       =    XYZ

Geometry recognized as XYZ



 Recomputing integrals since basis changed


 Using spherical harmonics

 Library entry O      S aug-cc-pVTZ          selected for orbital group  1
 Library entry O      P aug-cc-pVTZ          selected for orbital group  1
 Library entry O      D aug-cc-pVTZ          selected for orbital group  1
 Library entry O      F aug-cc-pVTZ          selected for orbital group  1
 Library entry H      S aug-cc-pVTZ          selected for orbital group  2
 Library entry H      P aug-cc-pVTZ          selected for orbital group  2
 Library entry H      D aug-cc-pVTZ          selected for orbital group  2
 Library entry C      S aug-cc-pVTZ          selected for orbital group  3
 Library entry C      P aug-cc-pVTZ          selected for orbital group  3
 Library entry C      D aug-cc-pVTZ          selected for orbital group  3
 Library entry C      F aug-cc-pVTZ          selected for orbital group  3

1PROGRAM * SEWARD (Integral evaluation for generally contracted gaussian basis sets)     Author: Roland Lindh, 1990

 Geometry written to block  1 of record 700


 Point group  Cs  



 ATOMIC COORDINATES

 NR  ATOM    CHARGE       X              Y              Z

   1  O       8.00    0.051927784    2.192104989    0.000000000
   2  O       8.00   -0.017697285   -2.199571297    0.000000000
   3  O       8.00    9.024063619   -0.041423194    0.000000000
   4  H       1.00    9.759346609    0.792463815    1.431399514
   5  H       1.00    9.759346609    0.792463815   -1.431399514
   6  C       6.00    0.047934793   -0.005899725    0.000000000

 Bond lengths in Bohr (Angstrom)

 1-6  2.198008341  2-6  2.194653170  3-4  1.812432947  3-5  1.812432947
     (1.163135919)     (1.161360439)     (0.959098208)     (0.959098208)

 Bond angles

  1-6-2  178.39037465   4-3-5  104.32746287

 NUCLEAR CHARGE:                   32
 NUMBER OF PRIMITIVE AOS:         322
 NUMBER OF SYMMETRY AOS:          282
 NUMBER OF CONTRACTIONS:          230   ( 143A'  +  87A"  )
 NUMBER OF CORE ORBITALS:           4   (   4A'  +   0A"  )
 NUMBER OF VALENCE ORBITALS:       18   (  13A'  +   5A"  )


 NUCLEAR REPULSION ENERGY   90.99439935


 Eigenvalues of metric

         1 0.348E-03 0.367E-03 0.372E-03 0.898E-03 0.921E-03 0.169E-02 0.175E-02 0.311E-02
         2 0.392E-03 0.163E-02 0.318E-02 0.347E-02 0.494E-02 0.622E-02 0.995E-02 0.124E-01


 Contracted 2-electron integrals neglected if value below      1.0D-11
 AO integral compression algorithm  1   Integral accuracy      1.0D-11

     507.773 MB (compressed) written to integral file ( 29.9%)

     Node minimum: 161.481 MB, node maximum: 177.734 MB


 NUMBER OF SORTED TWO-ELECTRON INTEGRALS:   59530350.     BUFFER LENGTH:  32768
 NUMBER OF SEGMENTS:   4  SEGMENT LENGTH:   15999984      RECORD LENGTH: 524288

 Memory used in sort:      16.56 MW

 SORT1 READ   211883851. AND WROTE    38638704. INTEGRALS IN    112 RECORDS. CPU TIME:     2.74 SEC, REAL TIME:     3.11 SEC
 SORT2 READ   116831634. AND WROTE   178576926. INTEGRALS IN   1848 RECORDS. CPU TIME:     0.98 SEC, REAL TIME:     1.26 SEC

 Node minimum:    59520934.  Node maximum:    59530350. integrals

 OPERATOR DM      FOR CENTER  0  COORDINATES:    0.000000    0.000000    0.000000


 **********************************************************************************************************************************
 DATASETS  * FILE   NREC   LENGTH (MB)   RECORD NAMES
              1      18        3.71       500      610      700      900      950      970     1000      129      960     1100   
                                          VAR    BASINP    GEOM    SYMINP    ZMAT    AOBASIS   BASIS     P2S    ABASIS      S 
                                         1400     1410     1200     1210     1080     1600     1650     1700   
                                           T        V       H0       H01     AOSYM     SMH    MOLCAS    OPER   

 PROGRAMS   *        TOTAL       INT
 CPU TIMES  *         6.96      6.88
 REAL TIME  *         7.75 SEC
 DISK USED  *         1.89 GB      
 GA USED    *         0.00 MB       (max)       0.00 MB       (current)
 **********************************************************************************************************************************

1PROGRAM * RHF-SCF (CLOSED SHELL)       Authors: W. Meyer, H.-J. Werner


 NUMBER OF ELECTRONS:      16+   16-
 CONVERGENCE THRESHOLDS:    1.00E-05 (Density)    1.00E-07 (Energy)
 MAX. NUMBER OF ITERATIONS:       60
 INTERPOLATION TYPE:            DIIS
 INTERPOLATION STEPS:              2 (START)      1 (STEP)
 LEVEL SHIFTS:                  0.00 (CLOSED)  0.00 (OPEN) 



 Orbital guess generated from atomic densities. Full valence occupancy:   17   5

 Molecular orbital dump at record        2100.2

 Initial alpha occupancy:  13   3
 Initial beta  occupancy:  13   3
 Wave function symmetry:    1

 ITERATION    DDIFF          GRAD             ENERGY        2-EL.EN.            DIPOLE MOMENTS         DIIS
    1      0.000D+00      0.000D+00      -263.66135136    377.729340    0.79995    0.84408    0.00000    0
    2      0.000D+00      0.641D-02      -263.72646644    373.119997    0.48882    0.48256    0.00000    1
    3      0.103D-01      0.435D-02      -263.76941229    375.676494    0.56654    0.57265    0.00000    2
    4      0.423D-02      0.411D-03      -263.76990759    375.466942    0.56841    0.57419    0.00000    3
    5      0.494D-03      0.120D-03      -263.76996575    375.467544    0.56521    0.57157    0.00000    4
    6      0.186D-03      0.485D-04      -263.76997301    375.482369    0.56569    0.57122    0.00000    5
    7      0.617D-04      0.119D-04      -263.76997375    375.474009    0.56542    0.57133    0.00000    6
    8      0.203D-04      0.285D-05      -263.76997380    375.475119    0.56542    0.57101    0.00000    7
    9      0.552D-05      0.167D-05      -263.76997380    375.475100    0.56541    0.57127    0.00000    0

 Final occupancy:  13   3

 !RHF STATE 1.1 Energy               -263.769973801045
 Nuclear energy                        90.99439935
 One-electron energy                 -542.50192307
 Two-electron energy                  187.73754992
 Virial quotient                       -1.00183895
 !RHF STATE 1.1 Dipole moment           0.56540749     0.57127294     0.00000000
 Dipole moment /Debye                   1.43702838     1.45193588     0.00000000

 Orbital energies:

         1.1          2.1          3.1          4.1          5.1          6.1          7.1          8.1          9.1         10.1
    -20.646496   -20.646440   -20.570416   -11.455433    -1.524081    -1.471023    -1.355611    -0.794557    -0.736836    -0.707970

        11.1         12.1         13.1         14.1         15.1
     -0.587990    -0.537849    -0.513191     0.027751     0.057131

         1.2          2.2          3.2          4.2          5.2
     -0.719286    -0.708253    -0.537981     0.046149     0.082448


 **********************************************************************************************************************************
 DATASETS  * FILE   NREC   LENGTH (MB)   RECORD NAMES
              1      18        3.72       500      610      700      900      950      970     1000      129      960     1100   
                                          VAR    BASINP    GEOM    SYMINP    ZMAT    AOBASIS   BASIS     P2S    ABASIS      S 
                                         1400     1410     1200     1210     1080     1600     1650     1700   
                                           T        V       H0       H01     AOSYM     SMH    MOLCAS    OPER   

              2       3        0.94       700     1000     2100   
                                         GEOM     BASIS     RHF  

 PROGRAMS   *        TOTAL        HF       INT
 CPU TIMES  *        10.98      4.02      6.88
 REAL TIME  *        12.01 SEC
 DISK USED  *         1.91 GB      
 SF USED    *         0.11 MB      
 GA USED    *         0.00 MB       (max)       0.00 MB       (current)
 **********************************************************************************************************************************


1PROGRAM * CCSD (Closed-shell coupled cluster)     Authors: C. Hampel, H.-J. Werner, 1991, M. Deegan, P.J. Knowles, 1992

                                  CCSD-F12 implementation by  H.-J. Werner, 2007

                   Density fitting integral evaluation by F.R. Manby, 2003,2007, G. Knizia, 2010

 Basis set CC-PVTZ/JKFIT generated.      Number of basis functions:   376 
 Basis set AUG-CC-PVTZ/MP2FIT generated. Number of basis functions:   516 

 Convergence thresholds:  THRVAR = 1.00D-08  THRDEN = 1.00D-06

 CCSD(T)     terms to be evaluated (factor= 1.000)


 Number of core orbitals:           4 (   4   0 )
 Number of closed-shell orbitals:  12 (   9   3 )
 Number of external orbitals:     214 ( 130  84 )

 Molecular orbitals read from record     2100.2  Type=RHF/CANONICAL (state 1.1)

 MP2-F12 correlation treatment (H.-J. Werner, 2006)
 --------------------------------------------------

 Using MP2-F12 with ansatz 3C(FIX)

 Using projected zeroth-order Hamiltonian (+Z)

 FOCKRIB=T FOCKRIC=T FOCKRIP=T CABSP=T CABSA=T CABSK=T CABSF=T GBC=F EBC=F DMAT=T NOFIK=T NOPAO=1 SOLVE=-1  USEPAO=0
 EXCH_A= T EXCH_B= F EXCH_C= F EXCH_P= F
 
 Geminal basis:    OPTFULL  GEM_TYPE=SLATER  BETA=1.0  NGEM=6

 Optimizing Gaussian exponents for each gem_beta

 Geminal optimization for beta= 1.0000
 Weight function:   m=0, omega= 1.4646

 Augmented Hessian optimization of geminal fit. Trust ratio= 0.40000
 Convergence reached after   2 iterations. Final gradient= 8.24D-16, Step= 4.32D-06, Delta= 1.28D-09
 
 Alpha:                 0.19532     0.81920     2.85917     9.50073    35.69989   197.79328
 Coeff:                 0.27070     0.30552     0.18297     0.10986     0.06810     0.04224
 

 Symmetry turned off. Reference energy:       -263.769973801045

 All pairs explicitly correlated. Number of r12-pairs:           78
 
 AO(A)-basis ORBITAL           loaded. Number of functions:     230
 RI(R)-basis CC-PVTZ/JKFIT     loaded. Number of functions:     376
 DF-basis CC-PVTZ/JKFIT        loaded. Number of functions:     376

 Screening thresholds:   THRAO=  1.00D-10  THRMO=  1.00D-09  THRPROD=  1.00D-09
                         THRSW=  1.00D-05  THROV=  1.00D-12  THRF12=   1.00D-08

 CPU time for Fock operators                      0.93 sec
 
 Construction of ABS:
 Smallest eigenvalue of S          2.57E-04  (threshold= 1.00E-08)
 Ratio eigmin/eigmax               1.83E-06  (threshold= 1.00E-09)
 Smallest eigenvalue of S kept     2.57E-04  (threshold= 2.57E-04, 0 functions deleted, 376 kept)
 
 Construction of CABS:
 Smallest eigenvalue of S          2.30E-08  (threshold= 1.00E-08)
 Ratio eigmin/eigmax               2.30E-08  (threshold= 1.00E-09)
 Smallest eigenvalue of S kept     2.30E-08  (threshold= 2.30E-08, 0 functions deleted, 376 kept)
 
 CPU time for CABS singles                        0.16 sec

 CABS-singles contribution of  -0.01592742 patched into reference energy.
 New reference energy        -263.78590122
 
 AO(A)-basis ORBITAL           loaded. Number of functions:     230
 RI(R)-basis CC-PVTZ/JKFIT     loaded. Number of functions:     376
 DF-basis AUG-CC-PVTZ/MP2FIT   loaded. Number of functions:     516

 Screening thresholds:   THRAO=  1.00D-10  THRMO=  1.00D-09  THRPROD=  1.00D-09
                         THRSW=  1.00D-05  THROV=  1.00D-12  THRF12=   1.00D-08

 CPU time for 3-index integral evaluation         2.46 sec
 CPU time for first  half transformation          0.29 sec (10117.4 MFLOP/sec)
 CPU time for second half transformation          0.01 sec (10474.8 MFLOP/sec)
 CPU time for sorting                             0.12 sec
 CPU time for fitting                             0.05 sec (27861.0 MFLOP/sec)
 CPU time for tilde quantities                    0.07 sec (26412.6 MFLOP/sec)
 CPU time for assembly                            0.78 sec (30729.5 MFLOP/sec)
 CPU time for tranop_f12                          0.87 sec (34674.8 MFLOP/sec)
 CPU time for f12 integrals (total)               6.71 sec
 F12-matrices built in  3 passes.
 F12-matrices built in  3 passes.
 F12-matrices built in  3 passes.
 F12-matrices built in  3 passes.
 FC-matrix built in  3 passes.
 CPU time for f12 matrices (total)                0.49 sec

 Diagonal F12 approximation with fixed coefficients:  TSING= 0.500,  TTRIP= 0.250 (scaled by -1/beta)

 DF-MP2-F12 energy corrections:
 ------------------------------
 Approx.                                    Singlet             Triplet             Total
 DF-MP2-F12/3*C(DX,FIX)                -0.097425216299     -0.016929864032     -0.114355080332
 DF-MP2-F12/3*C(FIX)                   -0.079844624970     -0.013392870843     -0.093237495813
 DF-MP2-F12/3C(FIX)                    -0.080207890084     -0.013417019869     -0.093624909953

 DF-MP2-F12 correlation energies:
 --------------------------------
 Approx.                                    Singlet             Triplet             Ecorr            Total Energy
 DF-MP2                                -0.537769815262     -0.343149405490     -0.880919220752   -264.666820441995
 DF-MP2-F12/3*C(DX,FIX)                -0.635195031561     -0.360079269523     -0.995274301084   -264.781175522326
 DF-MP2-F12/3*C(FIX)                   -0.617614440232     -0.356542276333     -0.974156716565   -264.760057937807
 DF-MP2-F12/3C(FIX)                    -0.617977705346     -0.356566425359     -0.974544130705   -264.760445351947

 SCS-DF-MP2 energies (F_SING= 1.20000  F_TRIP= 0.62222  F_PARALLEL= 0.33333):
 ----------------------------------------------------------------------------
 SCS-DF-MP2                            -0.858838963952   -264.644740185195
 SCS-DF-MP2-F12/3*C(DX,FIX)            -0.986283361132   -264.772184582374
 SCS-DF-MP2-F12/3*C(FIX)               -0.962985855774   -264.748887077017
 SCS-DF-MP2-F12/3C(FIX)                -0.963436799971   -264.749338021214

 Symmetry restored.
 Symmetry transformation completed.

 Number of N-1 electron functions:              12
 Number of N-2 electron functions:              78
 Number of singly external CSFs:              1422
 Number of doubly external CSFs:           1668984
 Total number of CSFs:                     1670407

 Pair and operator lists are different

 Length of J-op  integral file:             466.33 MB
 Length of K-op  integral file:             525.76 MB
 Length of 3-ext integral record:             0.00 MB

 Memory could be reduced to 76.19 Mwords without degradation in triples

 Integral transformation finished. Total CPU:   3.73 sec, npass=  1  Memory used:  26.50 MW

 Reference energy:                   -263.78590122

 Adding F12 terms to K(Cij), methodcc=6,  factor=1.0

 ITER.      SQ.NORM     CORR.ENERGY   TOTAL ENERGY   ENERGY CHANGE        DEN1      VAR(S)    VAR(P)  DIIS     TIME
   1      1.20218855    -0.86286610  -264.64876732     0.01806920     0.04669663  0.72D-02  0.56D-02  1  1    15.00
   2      1.21650553    -0.85864654  -264.64454776     0.00421955    -0.02015274  0.87D-04  0.59D-03  2  2    17.67
   3      1.22187387    -0.85874498  -264.64464620    -0.00009844    -0.00236741  0.13D-03  0.32D-04  3  3    20.99
   4      1.22467996    -0.85861722  -264.64451845     0.00012776    -0.00141266  0.76D-05  0.41D-05  4  4    23.65
   5      1.22571131    -0.85857958  -264.64448081     0.00003764    -0.00036649  0.56D-06  0.29D-06  5  5    26.34
   6      1.22587386    -0.85855271  -264.64445393     0.00002688    -0.00000808  0.40D-07  0.24D-07  6  6    28.90
   7      1.22590336    -0.85855028  -264.64445150     0.00000242    -0.00000623  0.26D-08  0.40D-08  6  4    31.72
   8      1.22590372    -0.85854979  -264.64445101     0.00000049     0.00000194  0.40D-09  0.27D-09  6  1    35.60
   9      1.22590434    -0.85854986  -264.64445108    -0.00000007     0.00000056  0.27D-10  0.22D-10  6  2    38.22

 Norm of t1 vector:      0.10601982      S-energy:     0.00000028      T1 diagnostic:  0.01530264
                                                                       D1 diagnostic:  0.04500384

 Adding energy correction from Wij-K(Fij), methodcc=6  factor=1.0
 
  CCSD correlation energy              -0.858549858229
  MP2-F12 correction (uncoupled)       -0.092465321576
  C*T doubles correction               -0.001475681678
  f12b correction                       0.015405565893


 Total CPU time for triples:     68.22 sec


 RESULTS
 =======

  Reference energy                   -263.769973801045
  F12 singles correction               -0.015927420197

 F12 singles corrections added to reference energy

  New reference energy               -263.785901221243

  F12a singlet correction              -0.080405975370
  F12a triplet correction              -0.013535027884
  F12a total correction                -0.093941003254

 F12a corrections for ansatz F12/3C(FIX) added to CCSD energy
 
  CCSD-F12a singlet pair energy        -0.641916138016
  CCSD-F12a triplet pair energy        -0.310575003184
  CCSD-F12a correlation energy         -0.952490861483

  Triples (T) contribution             -0.037658535935
  Total correlation energy             -0.990149397418

  CCSD-F12a total energy             -264.738392082725
  CCSD[T]-F12a energy                -264.778594401444
  CCSD-T-F12a energy                 -264.775113397757
 !CCSD(T)-F12a total energy          -264.776050618660

 F12b corrections for ansatz F12/3C(FIX) added to CCSD(T)-F12a energy

  CCSD-F12b singlet pair energy        -0.627733843289
  CCSD-F12b triplet pair energy        -0.309351732018
  CCSD-F12b correlation energy         -0.937085295589

  Triples (T) contribution             -0.037658535935
  Total correlation energy             -0.974743831524

  CCSD-F12b total energy             -264.722986516832
  CCSD[T]-F12b energy                -264.763188835551
  CCSD-T-F12b energy                 -264.759707831863
 !CCSD(T)-F12b total energy          -264.760645052767

 Timing summary (sec):

 STEP                 CPU(USER)    SYS     CPU(TOT)    WALL
 Transformation          3.75      0.49      4.24      4.24
 CCSD iterations        25.76      1.40     27.16     27.14
 Triples                68.22      1.47     69.69     69.65
 MP2-F12                 8.72      1.16      9.88      9.88
 F12b energy             1.73      0.02      1.75      1.76

 Program statistics:

 Available memory in ccsd:                99998934
 Min. memory needed in ccsd:               4419579
 Max. memory used in ccsd:                 5922321
 Max. memory used in cckext:               6231049 (10 integral passes)



 **********************************************************************************************************************************
 DATASETS  * FILE   NREC   LENGTH (MB)   RECORD NAMES
              1      20      268.24       500      610      700      900      950      970     1000      129      960     1100   
                                          VAR    BASINP    GEOM    SYMINP    ZMAT    AOBASIS   BASIS     P2S    ABASIS      S 
                                         1400     1410     1200     1210     1080     1600     1650     1700      960(1)  1380   
                                           T        V       H0       H01     AOSYM     SMH    MOLCAS    OPER    ABASIS    JKOP   

              2       5        1.51       700     1000     2100     7360     7350   
                                         GEOM     BASIS     RHF    F12ABS    EF12   

 PROGRAMS   *        TOTAL   CCSD(T)        HF       INT
 CPU TIMES  *       119.26    108.28      4.02      6.88
 REAL TIME  *       124.96 SEC
 DISK USED  *         2.35 GB      
 SF USED    *         1.52 GB      
 GA USED    *         2.40 MB       (max)       0.00 MB       (current)
 **********************************************************************************************************************************

     CCSD(T)-F12        HF-SCF  
   -264.76064505   -263.76997380
 **********************************************************************************************************************************
 Variable memory released
