
 Primary working directories    : /scratch/kee
 Secondary working directories  : /scratch/kee
 Wavefunction directory         : /home/kee/wfu/
 Main file repository           : /scratch/kee/

 ARCHNAME  : Linux/x86_64
 FC        : /opt/intel/composer_xe_2015.0.090/bin/intel64/ifort
 FCVERSION : 15.0.0
 BLASLIB   : -L/opt/intel/mkl/lib/intel64 -lmkl_intel_ilp64 -lmkl_sequential -lmkl_core
 id        : emory

 Nodes     nprocs
 node24       3
 Number of processes for MPI-2 version of Molpro:   nprocs(total)=    4   nprocs(compute)=    3   nprocs(helper)=    1
 ga_uses_ma=false, calling ma_init with nominal heap.
 GA-space will be limited to   8.0 MW (determined by -G option)

 Using customized tuning parameters: mindgm=7; mindgv=32; mindgc=1; mindgr=1; noblas=0; mincuda=1000; minvec=7
 default implementation of scratch files=sf  

 ***,co2h2o
 memory,100,m
 basis avtz
 geomtype = xyz
 geometry = {
 6
       0.00000000
 O     0.02747900    1.16001200    0.00000000
 O    -0.00936500   -1.16396300    0.00000000
 O     4.57533037   -0.02112871    0.00000000
 H     4.96442537    0.42014529    0.75746400
 H     4.96442537    0.42014529   -0.75746400
 C     0.02536600   -0.00312200    0.00000000
 }
 hf
 ccsd(t)-f12
 ---

 Variables initialized (665), CPU time= 0.01 sec
 Commands  initialized (462), CPU time= 0.00 sec, 486 directives.
 Default parameters read. Elapsed time= 0.03 sec

 Checking input...
 Passed
1


                                         ***  PROGRAM SYSTEM MOLPRO  ***
                         Copyright, University College Cardiff Consultants Limited, 2008

                                    Version 2010.1 linked 9 Dec 2014 15:06:28 


 **********************************************************************************************************************************
 LABEL *   co2h2o                                                                        
 Linux-2.6.32-504.el6.x86_64/node24(x86_64) 64 bit mpp version                           DATE: 14-Dec-16          TIME: 23:50:41  
 **********************************************************************************************************************************

 Patch level:      19
 **********************************************************************************************************************************

 Variable memory set to  100000000 words,  buffer space   230000 words

 SETTING BASIS          =    AVTZ
 SETTING GEOMTYPE       =    XYZ

Geometry recognized as XYZ



 Recomputing integrals since basis changed


 Using spherical harmonics

 Library entry O      S aug-cc-pVTZ          selected for orbital group  1
 Library entry O      P aug-cc-pVTZ          selected for orbital group  1
 Library entry O      D aug-cc-pVTZ          selected for orbital group  1
 Library entry O      F aug-cc-pVTZ          selected for orbital group  1
 Library entry H      S aug-cc-pVTZ          selected for orbital group  2
 Library entry H      P aug-cc-pVTZ          selected for orbital group  2
 Library entry H      D aug-cc-pVTZ          selected for orbital group  2
 Library entry C      S aug-cc-pVTZ          selected for orbital group  3
 Library entry C      P aug-cc-pVTZ          selected for orbital group  3
 Library entry C      D aug-cc-pVTZ          selected for orbital group  3
 Library entry C      F aug-cc-pVTZ          selected for orbital group  3

1PROGRAM * SEWARD (Integral evaluation for generally contracted gaussian basis sets)     Author: Roland Lindh, 1990

 Geometry written to block  1 of record 700


 Point group  Cs  



 ATOMIC COORDINATES

 NR  ATOM    CHARGE       X              Y              Z

   1  O       8.00    0.051927784    2.192104989    0.000000000
   2  O       8.00   -0.017697285   -2.199571297    0.000000000
   3  O       8.00    8.646121360   -0.039927475    0.000000000
   4  H       1.00    9.381404349    0.793959534    1.431399514
   5  H       1.00    9.381404349    0.793959534   -1.431399514
   6  C       6.00    0.047934793   -0.005899725    0.000000000

 Bond lengths in Bohr (Angstrom)

 1-6  2.198008341  2-6  2.194653170  3-4  1.812432947  3-5  1.812432947
     (1.163135919)     (1.161360439)     (0.959098208)     (0.959098208)

 Bond angles

  1-6-2  178.39037465   4-3-5  104.32746287

 NUCLEAR CHARGE:                   32
 NUMBER OF PRIMITIVE AOS:         322
 NUMBER OF SYMMETRY AOS:          282
 NUMBER OF CONTRACTIONS:          230   ( 143A'  +  87A"  )
 NUMBER OF CORE ORBITALS:           4   (   4A'  +   0A"  )
 NUMBER OF VALENCE ORBITALS:       18   (  13A'  +   5A"  )


 NUCLEAR REPULSION ENERGY   91.96407291


 Eigenvalues of metric

         1 0.348E-03 0.365E-03 0.367E-03 0.897E-03 0.921E-03 0.164E-02 0.175E-02 0.307E-02
         2 0.391E-03 0.163E-02 0.317E-02 0.347E-02 0.490E-02 0.621E-02 0.992E-02 0.123E-01


 Contracted 2-electron integrals neglected if value below      1.0D-11
 AO integral compression algorithm  1   Integral accuracy      1.0D-11

     529.007 MB (compressed) written to integral file ( 31.2%)

     Node minimum: 169.083 MB, node maximum: 185.074 MB


 NUMBER OF SORTED TWO-ELECTRON INTEGRALS:   59530350.     BUFFER LENGTH:  32768
 NUMBER OF SEGMENTS:   4  SEGMENT LENGTH:   15999984      RECORD LENGTH: 524288

 Memory used in sort:      16.56 MW

 SORT1 READ   211985387. AND WROTE    40397152. INTEGRALS IN    118 RECORDS. CPU TIME:     2.77 SEC, REAL TIME:     3.21 SEC
 SORT2 READ   122158583. AND WROTE   178576926. INTEGRALS IN   2118 RECORDS. CPU TIME:     0.98 SEC, REAL TIME:     2.38 SEC

 Node minimum:    59520934.  Node maximum:    59530350. integrals

 OPERATOR DM      FOR CENTER  0  COORDINATES:    0.000000    0.000000    0.000000


 **********************************************************************************************************************************
 DATASETS  * FILE   NREC   LENGTH (MB)   RECORD NAMES
              1      18        3.71       500      610      700      900      950      970     1000      129      960     1100   
                                          VAR    BASINP    GEOM    SYMINP    ZMAT    AOBASIS   BASIS     P2S    ABASIS      S 
                                         1400     1410     1200     1210     1080     1600     1650     1700   
                                           T        V       H0       H01     AOSYM     SMH    MOLCAS    OPER   

 PROGRAMS   *        TOTAL       INT
 CPU TIMES  *         7.03      6.97
 REAL TIME  *         9.05 SEC
 DISK USED  *         1.97 GB      
 GA USED    *         0.00 MB       (max)       0.00 MB       (current)
 **********************************************************************************************************************************

1PROGRAM * RHF-SCF (CLOSED SHELL)       Authors: W. Meyer, H.-J. Werner


 NUMBER OF ELECTRONS:      16+   16-
 CONVERGENCE THRESHOLDS:    1.00E-05 (Density)    1.00E-07 (Energy)
 MAX. NUMBER OF ITERATIONS:       60
 INTERPOLATION TYPE:            DIIS
 INTERPOLATION STEPS:              2 (START)      1 (STEP)
 LEVEL SHIFTS:                  0.00 (CLOSED)  0.00 (OPEN) 



 Orbital guess generated from atomic densities. Full valence occupancy:   17   5

 Molecular orbital dump at record        2100.2

 Initial alpha occupancy:  13   3
 Initial beta  occupancy:  13   3
 Wave function symmetry:    1

 ITERATION    DDIFF          GRAD             ENERGY        2-EL.EN.            DIPOLE MOMENTS         DIIS
    1      0.000D+00      0.000D+00      -263.66158835    379.693565    0.80011    0.84405    0.00000    0
    2      0.000D+00      0.641D-02      -263.72665964    375.080712    0.49418    0.48066    0.00000    1
    3      0.103D-01      0.434D-02      -263.76952204    377.635305    0.57038    0.57186    0.00000    2
    4      0.423D-02      0.411D-03      -263.77001738    377.426379    0.57224    0.57309    0.00000    3
    5      0.494D-03      0.120D-03      -263.77007557    377.426623    0.56912    0.57073    0.00000    4
    6      0.186D-03      0.486D-04      -263.77008285    377.441525    0.56961    0.57023    0.00000    5
    7      0.617D-04      0.120D-04      -263.77008359    377.433181    0.56934    0.57041    0.00000    6
    8      0.203D-04      0.293D-05      -263.77008364    377.434234    0.56934    0.57004    0.00000    7
    9      0.554D-05      0.181D-05      -263.77008365    377.434264    0.56933    0.57034    0.00000    0

 Final occupancy:  13   3

 !RHF STATE 1.1 Energy               -263.770083646314
 Nuclear energy                        91.96407291
 One-electron energy                 -544.45128876
 Two-electron energy                  188.71713221
 Virial quotient                       -1.00184012
 !RHF STATE 1.1 Dipole moment           0.56933157     0.57033609     0.00000000
 Dipole moment /Debye                   1.44700172     1.44955480     0.00000000

 Orbital energies:

         1.1          2.1          3.1          4.1          5.1          6.1          7.1          8.1          9.1         10.1
    -20.645855   -20.645805   -20.570793   -11.454825    -1.523442    -1.470392    -1.355994    -0.793956    -0.736244    -0.707302

        11.1         12.1         13.1         14.1         15.1
     -0.588412    -0.537227    -0.513591     0.027684     0.057745

         1.2          2.2          3.2          4.2          5.2
     -0.719666    -0.707634    -0.537375     0.046132     0.083129


 **********************************************************************************************************************************
 DATASETS  * FILE   NREC   LENGTH (MB)   RECORD NAMES
              1      18        3.72       500      610      700      900      950      970     1000      129      960     1100   
                                          VAR    BASINP    GEOM    SYMINP    ZMAT    AOBASIS   BASIS     P2S    ABASIS      S 
                                         1400     1410     1200     1210     1080     1600     1650     1700   
                                           T        V       H0       H01     AOSYM     SMH    MOLCAS    OPER   

              2       3        0.94       700     1000     2100   
                                         GEOM     BASIS     RHF  

 PROGRAMS   *        TOTAL        HF       INT
 CPU TIMES  *        11.11      4.08      6.97
 REAL TIME  *        13.39 SEC
 DISK USED  *         2.00 GB      
 SF USED    *         0.11 MB      
 GA USED    *         0.00 MB       (max)       0.00 MB       (current)
 **********************************************************************************************************************************


1PROGRAM * CCSD (Closed-shell coupled cluster)     Authors: C. Hampel, H.-J. Werner, 1991, M. Deegan, P.J. Knowles, 1992

                                  CCSD-F12 implementation by  H.-J. Werner, 2007

                   Density fitting integral evaluation by F.R. Manby, 2003,2007, G. Knizia, 2010

 Basis set CC-PVTZ/JKFIT generated.      Number of basis functions:   376 
 Basis set AUG-CC-PVTZ/MP2FIT generated. Number of basis functions:   516 

 Convergence thresholds:  THRVAR = 1.00D-08  THRDEN = 1.00D-06

 CCSD(T)     terms to be evaluated (factor= 1.000)


 Number of core orbitals:           4 (   4   0 )
 Number of closed-shell orbitals:  12 (   9   3 )
 Number of external orbitals:     214 ( 130  84 )

 Molecular orbitals read from record     2100.2  Type=RHF/CANONICAL (state 1.1)

 MP2-F12 correlation treatment (H.-J. Werner, 2006)
 --------------------------------------------------

 Using MP2-F12 with ansatz 3C(FIX)

 Using projected zeroth-order Hamiltonian (+Z)

 FOCKRIB=T FOCKRIC=T FOCKRIP=T CABSP=T CABSA=T CABSK=T CABSF=T GBC=F EBC=F DMAT=T NOFIK=T NOPAO=1 SOLVE=-1  USEPAO=0
 EXCH_A= T EXCH_B= F EXCH_C= F EXCH_P= F
 
 Geminal basis:    OPTFULL  GEM_TYPE=SLATER  BETA=1.0  NGEM=6

 Optimizing Gaussian exponents for each gem_beta

 Geminal optimization for beta= 1.0000
 Weight function:   m=0, omega= 1.4646

 Augmented Hessian optimization of geminal fit. Trust ratio= 0.40000
 Convergence reached after   2 iterations. Final gradient= 8.24D-16, Step= 4.32D-06, Delta= 1.28D-09
 
 Alpha:                 0.19532     0.81920     2.85917     9.50073    35.69989   197.79328
 Coeff:                 0.27070     0.30552     0.18297     0.10986     0.06810     0.04224
 

 Symmetry turned off. Reference energy:       -263.770083646314

 All pairs explicitly correlated. Number of r12-pairs:           78
 
 AO(A)-basis ORBITAL           loaded. Number of functions:     230
 RI(R)-basis CC-PVTZ/JKFIT     loaded. Number of functions:     376
 DF-basis CC-PVTZ/JKFIT        loaded. Number of functions:     376

 Screening thresholds:   THRAO=  1.00D-10  THRMO=  1.00D-09  THRPROD=  1.00D-09
                         THRSW=  1.00D-05  THROV=  1.00D-12  THRF12=   1.00D-08

 CPU time for Fock operators                      0.93 sec
 
 Construction of ABS:
 Smallest eigenvalue of S          2.57E-04  (threshold= 1.00E-08)
 Ratio eigmin/eigmax               1.83E-06  (threshold= 1.00E-09)
 Smallest eigenvalue of S kept     2.57E-04  (threshold= 2.57E-04, 0 functions deleted, 376 kept)
 
 Construction of CABS:
 Smallest eigenvalue of S          2.30E-08  (threshold= 1.00E-08)
 Ratio eigmin/eigmax               2.30E-08  (threshold= 1.00E-09)
 Smallest eigenvalue of S kept     2.30E-08  (threshold= 2.30E-08, 0 functions deleted, 376 kept)
 
 CPU time for CABS singles                        0.16 sec

 CABS-singles contribution of  -0.01592930 patched into reference energy.
 New reference energy        -263.78601295
 
 AO(A)-basis ORBITAL           loaded. Number of functions:     230
 RI(R)-basis CC-PVTZ/JKFIT     loaded. Number of functions:     376
 DF-basis AUG-CC-PVTZ/MP2FIT   loaded. Number of functions:     516

 Screening thresholds:   THRAO=  1.00D-10  THRMO=  1.00D-09  THRPROD=  1.00D-09
                         THRSW=  1.00D-05  THROV=  1.00D-12  THRF12=   1.00D-08

 CPU time for 3-index integral evaluation         2.47 sec
 CPU time for first  half transformation          0.29 sec (10178.0 MFLOP/sec)
 CPU time for second half transformation          0.02 sec ( 5228.2 MFLOP/sec)
 CPU time for sorting                             0.15 sec
 CPU time for fitting                             0.06 sec (23217.5 MFLOP/sec)
 CPU time for tilde quantities                    0.06 sec (30814.7 MFLOP/sec)
 CPU time for assembly                            0.77 sec (30683.4 MFLOP/sec)
 CPU time for tranop_f12                          0.86 sec (34732.1 MFLOP/sec)
 CPU time for f12 integrals (total)               6.77 sec
 F12-matrices built in  3 passes.
 F12-matrices built in  3 passes.
 F12-matrices built in  3 passes.
 F12-matrices built in  3 passes.
 FC-matrix built in  3 passes.
 CPU time for f12 matrices (total)                0.49 sec

 Diagonal F12 approximation with fixed coefficients:  TSING= 0.500,  TTRIP= 0.250 (scaled by -1/beta)

 DF-MP2-F12 energy corrections:
 ------------------------------
 Approx.                                    Singlet             Triplet             Total
 DF-MP2-F12/3*C(DX,FIX)                -0.097418472807     -0.016929202034     -0.114347674841
 DF-MP2-F12/3*C(FIX)                   -0.079839316456     -0.013392684533     -0.093232000990
 DF-MP2-F12/3C(FIX)                    -0.080203051569     -0.013417148783     -0.093620200352

 DF-MP2-F12 correlation energies:
 --------------------------------
 Approx.                                    Singlet             Triplet             Ecorr            Total Energy
 DF-MP2                                -0.537773284411     -0.343168910483     -0.880942194895   -264.666955143315
 DF-MP2-F12/3*C(DX,FIX)                -0.635191757218     -0.360098112517     -0.995289869736   -264.781302818156
 DF-MP2-F12/3*C(FIX)                   -0.617612600868     -0.356561595017     -0.974174195884   -264.760187144304
 DF-MP2-F12/3C(FIX)                    -0.617976335980     -0.356586059266     -0.974562395247   -264.760575343667

 SCS-DF-MP2 energies (F_SING= 1.20000  F_TRIP= 0.62222  F_PARALLEL= 0.33333):
 ----------------------------------------------------------------------------
 SCS-DF-MP2                            -0.858855263372   -264.644868211792
 SCS-DF-MP2-F12/3*C(DX,FIX)            -0.986291156451   -264.772304104871
 SCS-DF-MP2-F12/3*C(FIX)               -0.962995669052   -264.749008617472
 SCS-DF-MP2-F12/3C(FIX)                -0.963447373387   -264.749460321807

 Symmetry restored.
 Symmetry transformation completed.

 Number of N-1 electron functions:              12
 Number of N-2 electron functions:              78
 Number of singly external CSFs:              1422
 Number of doubly external CSFs:           1668984
 Total number of CSFs:                     1670407

 Pair and operator lists are different

 Length of J-op  integral file:             466.33 MB
 Length of K-op  integral file:             525.76 MB
 Length of 3-ext integral record:             0.00 MB

 Memory could be reduced to 76.19 Mwords without degradation in triples

 Integral transformation finished. Total CPU:   3.65 sec, npass=  1  Memory used:  26.50 MW

 Reference energy:                   -263.78601295

 Adding F12 terms to K(Cij), methodcc=6,  factor=1.0

 ITER.      SQ.NORM     CORR.ENERGY   TOTAL ENERGY   ENERGY CHANGE        DEN1      VAR(S)    VAR(P)  DIIS     TIME
   1      1.20219112    -0.86288904  -264.64890199     0.01806914     0.04669333  0.72D-02  0.56D-02  1  1    15.04
   2      1.21650814    -0.85867169  -264.64468464     0.00421735    -0.02015174  0.87D-04  0.59D-03  2  2    17.71
   3      1.22187752    -0.85877069  -264.64478364    -0.00009900    -0.00236783  0.13D-03  0.32D-04  3  3    20.40
   4      1.22468419    -0.85864295  -264.64465589     0.00012774    -0.00141279  0.76D-05  0.41D-05  4  4    23.11
   5      1.22571573    -0.85860531  -264.64461826     0.00003764    -0.00036646  0.56D-06  0.29D-06  5  5    25.81
   6      1.22587836    -0.85857843  -264.64459138     0.00002688    -0.00000808  0.40D-07  0.24D-07  6  6    28.53
   7      1.22590789    -0.85857600  -264.64458895     0.00000242    -0.00000624  0.26D-08  0.40D-08  6  4    31.23
   8      1.22590825    -0.85857551  -264.64458846     0.00000049     0.00000193  0.40D-09  0.27D-09  6  1    33.94
   9      1.22590888    -0.85857558  -264.64458853    -0.00000007     0.00000056  0.27D-10  0.22D-10  6  2    37.68

 Norm of t1 vector:      0.10602929      S-energy:     0.00000036      T1 diagnostic:  0.01530401
                                                                       D1 diagnostic:  0.04501583

 Adding energy correction from Wij-K(Fij), methodcc=6  factor=1.0
 
  CCSD correlation energy              -0.858575577006
  MP2-F12 correction (uncoupled)       -0.092460511845
  C*T doubles correction               -0.001475151202
  f12b correction                       0.015405168534


 Total CPU time for triples:     72.25 sec


 RESULTS
 =======

  Reference energy                   -263.770083646314
  F12 singles correction               -0.015929302106

 F12 singles corrections added to reference energy

  New reference energy               -263.786012948420

  F12a singlet correction              -0.080400700176
  F12a triplet correction              -0.013534962871
  F12a total correction                -0.093935663047

 F12a corrections for ansatz F12/3C(FIX) added to CCSD energy
 
  CCSD-F12a singlet pair energy        -0.641912925997
  CCSD-F12a triplet pair energy        -0.310598678695
  CCSD-F12a correlation energy         -0.952511240053

  Triples (T) contribution             -0.037663291859
  Total correlation energy             -0.990174531912

  CCSD-F12a total energy             -264.738524188473
  CCSD[T]-F12a energy                -264.778731184137
  CCSD-T-F12a energy                 -264.775250403341
 !CCSD(T)-F12a total energy          -264.776187480332

 F12b corrections for ansatz F12/3C(FIX) added to CCSD(T)-F12a energy

  CCSD-F12b singlet pair energy        -0.627731054700
  CCSD-F12b triplet pair energy        -0.309375381459
  CCSD-F12b correlation energy         -0.937106071520

  Triples (T) contribution             -0.037663291859
  Total correlation energy             -0.974769363379

  CCSD-F12b total energy             -264.723119019940
  CCSD[T]-F12b energy                -264.763326015603
  CCSD-T-F12b energy                 -264.759845234808
 !CCSD(T)-F12b total energy          -264.760782311799

 Timing summary (sec):

 STEP                 CPU(USER)    SYS     CPU(TOT)    WALL
 Transformation          3.68      0.49      4.17      4.17
 CCSD iterations        25.20      1.46     26.66     27.18
 Triples                72.25      1.53     73.78     73.76
 MP2-F12                 8.81      1.07      9.88      9.88
 F12b energy             1.96      0.04      2.00      2.00

 Program statistics:

 Available memory in ccsd:                99998934
 Min. memory needed in ccsd:               4419579
 Max. memory used in ccsd:                 5922321
 Max. memory used in cckext:               6231049 (10 integral passes)



 **********************************************************************************************************************************
 DATASETS  * FILE   NREC   LENGTH (MB)   RECORD NAMES
              1      20      268.24       500      610      700      900      950      970     1000      129      960     1100   
                                          VAR    BASINP    GEOM    SYMINP    ZMAT    AOBASIS   BASIS     P2S    ABASIS      S 
                                         1400     1410     1200     1210     1080     1600     1650     1700      960(1)  1380   
                                           T        V       H0       H01     AOSYM     SMH    MOLCAS    OPER    ABASIS    JKOP   

              2       5        1.51       700     1000     2100     7360     7350   
                                         GEOM     BASIS     RHF    F12ABS    EF12   

 PROGRAMS   *        TOTAL   CCSD(T)        HF       INT
 CPU TIMES  *       123.08    111.97      4.08      6.97
 REAL TIME  *       130.66 SEC
 DISK USED  *         2.43 GB      
 SF USED    *         1.52 GB      
 GA USED    *         2.40 MB       (max)       0.00 MB       (current)
 **********************************************************************************************************************************

     CCSD(T)-F12        HF-SCF  
   -264.76078231   -263.77008365
 **********************************************************************************************************************************
 Variable memory released
