
 Primary working directories    : /scratch/kee
 Secondary working directories  : /scratch/kee
 Wavefunction directory         : /home/kee/wfu/
 Main file repository           : /scratch/kee/

 ARCHNAME  : Linux/x86_64
 FC        : /opt/intel/composer_xe_2015.0.090/bin/intel64/ifort
 FCVERSION : 15.0.0
 BLASLIB   : -L/opt/intel/mkl/lib/intel64 -lmkl_intel_ilp64 -lmkl_sequential -lmkl_core
 id        : emory

 Nodes     nprocs
 node24       3
 Number of processes for MPI-2 version of Molpro:   nprocs(total)=    4   nprocs(compute)=    3   nprocs(helper)=    1
 ga_uses_ma=false, calling ma_init with nominal heap.
 GA-space will be limited to   8.0 MW (determined by -G option)

 Using customized tuning parameters: mindgm=7; mindgv=32; mindgc=1; mindgr=1; noblas=0; mincuda=1000; minvec=7
 default implementation of scratch files=sf  

 ***,co2h2o
 memory,100,m
 basis avtz
 geomtype = xyz
 geometry = {
 6
       0.00000000
 O     0.02747900    1.16001200    0.00000000
 O    -0.00936500   -1.16396300    0.00000000
 O     4.67532959   -0.02152446    0.00000000
 H     5.06442459    0.41974954    0.75746400
 H     5.06442459    0.41974954   -0.75746400
 C     0.02536600   -0.00312200    0.00000000
 }
 hf
 ccsd(t)-f12
 ---

 Variables initialized (665), CPU time= 0.00 sec
 Commands  initialized (462), CPU time= 0.01 sec, 486 directives.
 Default parameters read. Elapsed time= 0.04 sec

 Checking input...
 Passed
1


                                         ***  PROGRAM SYSTEM MOLPRO  ***
                         Copyright, University College Cardiff Consultants Limited, 2008

                                    Version 2010.1 linked 9 Dec 2014 15:06:28 


 **********************************************************************************************************************************
 LABEL *   co2h2o                                                                        
 Linux-2.6.32-504.el6.x86_64/node24(x86_64) 64 bit mpp version                           DATE: 14-Dec-16          TIME: 23:55:02  
 **********************************************************************************************************************************

 Patch level:      19
 **********************************************************************************************************************************

 Variable memory set to  100000000 words,  buffer space   230000 words

 SETTING BASIS          =    AVTZ
 SETTING GEOMTYPE       =    XYZ

Geometry recognized as XYZ



 Recomputing integrals since basis changed


 Using spherical harmonics

 Library entry O      S aug-cc-pVTZ          selected for orbital group  1
 Library entry O      P aug-cc-pVTZ          selected for orbital group  1
 Library entry O      D aug-cc-pVTZ          selected for orbital group  1
 Library entry O      F aug-cc-pVTZ          selected for orbital group  1
 Library entry H      S aug-cc-pVTZ          selected for orbital group  2
 Library entry H      P aug-cc-pVTZ          selected for orbital group  2
 Library entry H      D aug-cc-pVTZ          selected for orbital group  2
 Library entry C      S aug-cc-pVTZ          selected for orbital group  3
 Library entry C      P aug-cc-pVTZ          selected for orbital group  3
 Library entry C      D aug-cc-pVTZ          selected for orbital group  3
 Library entry C      F aug-cc-pVTZ          selected for orbital group  3

1PROGRAM * SEWARD (Integral evaluation for generally contracted gaussian basis sets)     Author: Roland Lindh, 1990

 Geometry written to block  1 of record 700


 Point group  Cs  



 ATOMIC COORDINATES

 NR  ATOM    CHARGE       X              Y              Z

   1  O       8.00    0.051927784    2.192104989    0.000000000
   2  O       8.00   -0.017697285   -2.199571297    0.000000000
   3  O       8.00    8.835092499   -0.040675335    0.000000000
   4  H       1.00    9.570375488    0.793211674    1.431399514
   5  H       1.00    9.570375488    0.793211674   -1.431399514
   6  C       6.00    0.047934793   -0.005899725    0.000000000

 Bond lengths in Bohr (Angstrom)

 1-6  2.198008341  2-6  2.194653170  3-4  1.812432947  3-5  1.812432947
     (1.163135919)     (1.161360439)     (0.959098208)     (0.959098208)

 Bond angles

  1-6-2  178.39037465   4-3-5  104.32746287

 NUCLEAR CHARGE:                   32
 NUMBER OF PRIMITIVE AOS:         322
 NUMBER OF SYMMETRY AOS:          282
 NUMBER OF CONTRACTIONS:          230   ( 143A'  +  87A"  )
 NUMBER OF CORE ORBITALS:           4   (   4A'  +   0A"  )
 NUMBER OF VALENCE ORBITALS:       18   (  13A'  +   5A"  )


 NUCLEAR REPULSION ENERGY   91.46965450


 Eigenvalues of metric

         1 0.348E-03 0.367E-03 0.369E-03 0.897E-03 0.921E-03 0.167E-02 0.175E-02 0.309E-02
         2 0.392E-03 0.163E-02 0.317E-02 0.347E-02 0.492E-02 0.621E-02 0.994E-02 0.123E-01


 Contracted 2-electron integrals neglected if value below      1.0D-11
 AO integral compression algorithm  1   Integral accuracy      1.0D-11

     517.997 MB (compressed) written to integral file ( 30.6%)

     Node minimum: 152.044 MB, node maximum: 184.287 MB


 NUMBER OF SORTED TWO-ELECTRON INTEGRALS:   59530350.     BUFFER LENGTH:  32768
 NUMBER OF SEGMENTS:   4  SEGMENT LENGTH:   15999984      RECORD LENGTH: 524288

 Memory used in sort:      16.56 MW

 SORT1 READ   211966171. AND WROTE    39513412. INTEGRALS IN    115 RECORDS. CPU TIME:     2.79 SEC, REAL TIME:     3.18 SEC
 SORT2 READ   119485964. AND WROTE   178576926. INTEGRALS IN   2109 RECORDS. CPU TIME:     0.96 SEC, REAL TIME:     1.26 SEC

 Node minimum:    59520934.  Node maximum:    59530350. integrals

 OPERATOR DM      FOR CENTER  0  COORDINATES:    0.000000    0.000000    0.000000


 **********************************************************************************************************************************
 DATASETS  * FILE   NREC   LENGTH (MB)   RECORD NAMES
              1      18        3.71       500      610      700      900      950      970     1000      129      960     1100   
                                          VAR    BASINP    GEOM    SYMINP    ZMAT    AOBASIS   BASIS     P2S    ABASIS      S 
                                         1400     1410     1200     1210     1080     1600     1650     1700   
                                           T        V       H0       H01     AOSYM     SMH    MOLCAS    OPER   

 PROGRAMS   *        TOTAL       INT
 CPU TIMES  *         6.96      6.88
 REAL TIME  *         7.82 SEC
 DISK USED  *         1.95 GB      
 GA USED    *         0.00 MB       (max)       0.00 MB       (current)
 **********************************************************************************************************************************

1PROGRAM * RHF-SCF (CLOSED SHELL)       Authors: W. Meyer, H.-J. Werner


 NUMBER OF ELECTRONS:      16+   16-
 CONVERGENCE THRESHOLDS:    1.00E-05 (Density)    1.00E-07 (Energy)
 MAX. NUMBER OF ITERATIONS:       60
 INTERPOLATION TYPE:            DIIS
 INTERPOLATION STEPS:              2 (START)      1 (STEP)
 LEVEL SHIFTS:                  0.00 (CLOSED)  0.00 (OPEN) 



 Orbital guess generated from atomic densities. Full valence occupancy:   17   5

 Molecular orbital dump at record        2100.2

 Initial alpha occupancy:  13   3
 Initial beta  occupancy:  13   3
 Wave function symmetry:    1

 ITERATION    DDIFF          GRAD             ENERGY        2-EL.EN.            DIPOLE MOMENTS         DIIS
    1      0.000D+00      0.000D+00      -263.66146393    378.691969    0.80003    0.84407    0.00000    0
    2      0.000D+00      0.641D-02      -263.72655832    374.080851    0.49138    0.48164    0.00000    1
    3      0.103D-01      0.434D-02      -263.76946444    376.636469    0.56838    0.57227    0.00000    2
    4      0.423D-02      0.411D-03      -263.76995976    376.427214    0.57024    0.57366    0.00000    3
    5      0.494D-03      0.120D-03      -263.77001793    376.427645    0.56708    0.57116    0.00000    4
    6      0.186D-03      0.486D-04      -263.77002520    376.442507    0.56756    0.57074    0.00000    5
    7      0.617D-04      0.120D-04      -263.77002594    376.434154    0.56730    0.57089    0.00000    6
    8      0.203D-04      0.289D-05      -263.77002599    376.435237    0.56729    0.57054    0.00000    7
    9      0.553D-05      0.174D-05      -263.77002599    376.435242    0.56729    0.57082    0.00000    0

 Final occupancy:  13   3

 !RHF STATE 1.1 Energy               -263.770025992493
 Nuclear energy                        91.46965450
 One-electron energy                 -543.45730137
 Two-electron energy                  188.21762088
 Virial quotient                       -1.00183952
 !RHF STATE 1.1 Dipole moment           0.56728662     0.57081780     0.00000000
 Dipole moment /Debye                   1.44180433     1.45077909     0.00000000

 Orbital energies:

         1.1          2.1          3.1          4.1          5.1          6.1          7.1          8.1          9.1         10.1
    -20.646183   -20.646136   -20.570597   -11.455138    -1.523772    -1.470718    -1.355794    -0.794266    -0.736549    -0.707647

        11.1         12.1         13.1         14.1         15.1
     -0.588192    -0.537548    -0.513382     0.027721     0.057434

         1.2          2.2          3.2          4.2          5.2
     -0.719468    -0.707953    -0.537688     0.046140     0.082785


 **********************************************************************************************************************************
 DATASETS  * FILE   NREC   LENGTH (MB)   RECORD NAMES
              1      18        3.72       500      610      700      900      950      970     1000      129      960     1100   
                                          VAR    BASINP    GEOM    SYMINP    ZMAT    AOBASIS   BASIS     P2S    ABASIS      S 
                                         1400     1410     1200     1210     1080     1600     1650     1700   
                                           T        V       H0       H01     AOSYM     SMH    MOLCAS    OPER   

              2       3        0.94       700     1000     2100   
                                         GEOM     BASIS     RHF  

 PROGRAMS   *        TOTAL        HF       INT
 CPU TIMES  *        11.04      4.08      6.88
 REAL TIME  *        12.17 SEC
 DISK USED  *         1.97 GB      
 SF USED    *         0.11 MB      
 GA USED    *         0.00 MB       (max)       0.00 MB       (current)
 **********************************************************************************************************************************


1PROGRAM * CCSD (Closed-shell coupled cluster)     Authors: C. Hampel, H.-J. Werner, 1991, M. Deegan, P.J. Knowles, 1992

                                  CCSD-F12 implementation by  H.-J. Werner, 2007

                   Density fitting integral evaluation by F.R. Manby, 2003,2007, G. Knizia, 2010

 Basis set CC-PVTZ/JKFIT generated.      Number of basis functions:   376 
 Basis set AUG-CC-PVTZ/MP2FIT generated. Number of basis functions:   516 

 Convergence thresholds:  THRVAR = 1.00D-08  THRDEN = 1.00D-06

 CCSD(T)     terms to be evaluated (factor= 1.000)


 Number of core orbitals:           4 (   4   0 )
 Number of closed-shell orbitals:  12 (   9   3 )
 Number of external orbitals:     214 ( 130  84 )

 Molecular orbitals read from record     2100.2  Type=RHF/CANONICAL (state 1.1)

 MP2-F12 correlation treatment (H.-J. Werner, 2006)
 --------------------------------------------------

 Using MP2-F12 with ansatz 3C(FIX)

 Using projected zeroth-order Hamiltonian (+Z)

 FOCKRIB=T FOCKRIC=T FOCKRIP=T CABSP=T CABSA=T CABSK=T CABSF=T GBC=F EBC=F DMAT=T NOFIK=T NOPAO=1 SOLVE=-1  USEPAO=0
 EXCH_A= T EXCH_B= F EXCH_C= F EXCH_P= F
 
 Geminal basis:    OPTFULL  GEM_TYPE=SLATER  BETA=1.0  NGEM=6

 Optimizing Gaussian exponents for each gem_beta

 Geminal optimization for beta= 1.0000
 Weight function:   m=0, omega= 1.4646

 Augmented Hessian optimization of geminal fit. Trust ratio= 0.40000
 Convergence reached after   2 iterations. Final gradient= 8.24D-16, Step= 4.32D-06, Delta= 1.28D-09
 
 Alpha:                 0.19532     0.81920     2.85917     9.50073    35.69989   197.79328
 Coeff:                 0.27070     0.30552     0.18297     0.10986     0.06810     0.04224
 

 Symmetry turned off. Reference energy:       -263.770025992493

 All pairs explicitly correlated. Number of r12-pairs:           78
 
 AO(A)-basis ORBITAL           loaded. Number of functions:     230
 RI(R)-basis CC-PVTZ/JKFIT     loaded. Number of functions:     376
 DF-basis CC-PVTZ/JKFIT        loaded. Number of functions:     376

 Screening thresholds:   THRAO=  1.00D-10  THRMO=  1.00D-09  THRPROD=  1.00D-09
                         THRSW=  1.00D-05  THROV=  1.00D-12  THRF12=   1.00D-08

 CPU time for Fock operators                      0.92 sec
 
 Construction of ABS:
 Smallest eigenvalue of S          2.57E-04  (threshold= 1.00E-08)
 Ratio eigmin/eigmax               1.83E-06  (threshold= 1.00E-09)
 Smallest eigenvalue of S kept     2.57E-04  (threshold= 2.57E-04, 0 functions deleted, 376 kept)
 
 Construction of CABS:
 Smallest eigenvalue of S          2.30E-08  (threshold= 1.00E-08)
 Ratio eigmin/eigmax               2.30E-08  (threshold= 1.00E-09)
 Smallest eigenvalue of S kept     2.30E-08  (threshold= 2.30E-08, 0 functions deleted, 376 kept)
 
 CPU time for CABS singles                        0.16 sec

 CABS-singles contribution of  -0.01592824 patched into reference energy.
 New reference energy        -263.78595423
 
 AO(A)-basis ORBITAL           loaded. Number of functions:     230
 RI(R)-basis CC-PVTZ/JKFIT     loaded. Number of functions:     376
 DF-basis AUG-CC-PVTZ/MP2FIT   loaded. Number of functions:     516

 Screening thresholds:   THRAO=  1.00D-10  THRMO=  1.00D-09  THRPROD=  1.00D-09
                         THRSW=  1.00D-05  THROV=  1.00D-12  THRF12=   1.00D-08

 CPU time for 3-index integral evaluation         2.54 sec
 CPU time for first  half transformation          0.19 sec (14610.1 MFLOP/sec)
 CPU time for second half transformation          0.03 sec ( 3084.6 MFLOP/sec)
 CPU time for sorting                             0.16 sec
 CPU time for fitting                             0.05 sec (27861.0 MFLOP/sec)
 CPU time for tilde quantities                    0.07 sec (26412.6 MFLOP/sec)
 CPU time for assembly                            0.77 sec (30455.0 MFLOP/sec)
 CPU time for tranop_f12                          0.86 sec (35498.6 MFLOP/sec)
 CPU time for f12 integrals (total)               6.70 sec
 F12-matrices built in  3 passes.
 F12-matrices built in  3 passes.
 F12-matrices built in  3 passes.
 F12-matrices built in  3 passes.
 FC-matrix built in  3 passes.
 CPU time for f12 matrices (total)                0.48 sec

 Diagonal F12 approximation with fixed coefficients:  TSING= 0.500,  TTRIP= 0.250 (scaled by -1/beta)

 DF-MP2-F12 energy corrections:
 ------------------------------
 Approx.                                    Singlet             Triplet             Total
 DF-MP2-F12/3*C(DX,FIX)                -0.097422100294     -0.016929541184     -0.114351641478
 DF-MP2-F12/3*C(FIX)                   -0.079842168937     -0.013392757594     -0.093234926531
 DF-MP2-F12/3C(FIX)                    -0.080205695236     -0.013417058378     -0.093622753615

 DF-MP2-F12 correlation energies:
 --------------------------------
 Approx.                                    Singlet             Triplet             Ecorr            Total Energy
 DF-MP2                                -0.537771191771     -0.343158259723     -0.880929451494   -264.666883683921
 DF-MP2-F12/3*C(DX,FIX)                -0.635193292065     -0.360087800907     -0.995281092972   -264.781235325399
 DF-MP2-F12/3*C(FIX)                   -0.617613360708     -0.356551017317     -0.974164378025   -264.760118610452
 DF-MP2-F12/3C(FIX)                    -0.617976887007     -0.356575318101     -0.974552205109   -264.760506437536

 SCS-DF-MP2 energies (F_SING= 1.20000  F_TRIP= 0.62222  F_PARALLEL= 0.33333):
 ----------------------------------------------------------------------------
 SCS-DF-MP2                            -0.858846125064   -264.644800357491
 SCS-DF-MP2-F12/3*C(DX,FIX)            -0.986286582153   -264.772240814581
 SCS-DF-MP2-F12/3*C(FIX)               -0.962989999180   -264.748944231607
 SCS-DF-MP2-F12/3C(FIX)                -0.963441351228   -264.749395583655

 Symmetry restored.
 Symmetry transformation completed.

 Number of N-1 electron functions:              12
 Number of N-2 electron functions:              78
 Number of singly external CSFs:              1422
 Number of doubly external CSFs:           1668984
 Total number of CSFs:                     1670407

 Pair and operator lists are different

 Length of J-op  integral file:             466.33 MB
 Length of K-op  integral file:             525.76 MB
 Length of 3-ext integral record:             0.00 MB

 Memory could be reduced to 76.19 Mwords without degradation in triples

 Integral transformation finished. Total CPU:   3.68 sec, npass=  1  Memory used:  26.50 MW

 Reference energy:                   -263.78595423

 Adding F12 terms to K(Cij), methodcc=6,  factor=1.0

 ITER.      SQ.NORM     CORR.ENERGY   TOTAL ENERGY   ENERGY CHANGE        DEN1      VAR(S)    VAR(P)  DIIS     TIME
   1      1.20218961    -0.86287638  -264.64883061     0.01806910     0.04669493  0.72D-02  0.56D-02  1  1    14.91
   2      1.21650656    -0.85865789  -264.64461213     0.00421849    -0.02015222  0.87D-04  0.59D-03  2  2    17.54
   3      1.22187539    -0.85875660  -264.64471083    -0.00009871    -0.00236761  0.13D-03  0.32D-04  3  3    20.23
   4      1.22468175    -0.85862885  -264.64458308     0.00012775    -0.00141271  0.76D-05  0.41D-05  4  4    22.94
   5      1.22571319    -0.85859121  -264.64454544     0.00003764    -0.00036647  0.56D-06  0.29D-06  5  5    25.61
   6      1.22587578    -0.85856433  -264.64451856     0.00002688    -0.00000808  0.40D-07  0.24D-07  6  6    28.28
   7      1.22590530    -0.85856191  -264.64451614     0.00000242    -0.00000624  0.26D-08  0.40D-08  6  4    31.00
   8      1.22590566    -0.85856142  -264.64451565     0.00000049     0.00000194  0.40D-09  0.27D-09  6  1    33.73
   9      1.22590629    -0.85856148  -264.64451572    -0.00000007     0.00000056  0.27D-10  0.22D-10  6  2    36.39

 Norm of t1 vector:      0.10602419      S-energy:     0.00000032      T1 diagnostic:  0.01530327
                                                                       D1 diagnostic:  0.04500943

 Adding energy correction from Wij-K(Fij), methodcc=6  factor=1.0
 
  CCSD correlation energy              -0.858561483246
  MP2-F12 correction (uncoupled)       -0.092463004210
  C*T doubles correction               -0.001475476906
  f12b correction                       0.015405379259


 Total CPU time for triples:     67.89 sec


 RESULTS
 =======

  Reference energy                   -263.770025992493
  F12 singles correction               -0.015928239934

 F12 singles corrections added to reference energy

  New reference energy               -263.785954232427

  F12a singlet correction              -0.080403515396
  F12a triplet correction              -0.013534965720
  F12a total correction                -0.093938481116

 F12a corrections for ansatz F12/3C(FIX) added to CCSD energy
 
  CCSD-F12a singlet pair energy        -0.641914475158
  CCSD-F12a triplet pair energy        -0.310585809446
  CCSD-F12a correlation energy         -0.952499964362

  Triples (T) contribution             -0.037660672907
  Total correlation energy             -0.990160637268

  CCSD-F12a total energy             -264.738454196789
  CCSD[T]-F12a energy                -264.778658606805
  CCSD-T-F12a energy                 -264.775177719719
 !CCSD(T)-F12a total energy          -264.776114869696

 F12b corrections for ansatz F12/3C(FIX) added to CCSD(T)-F12a energy

  CCSD-F12b singlet pair energy        -0.627732377472
  CCSD-F12b triplet pair energy        -0.309362527874
  CCSD-F12b correlation energy         -0.937094585103

  Triples (T) contribution             -0.037660672906
  Total correlation energy             -0.974755258010

  CCSD-F12b total energy             -264.723048817531
  CCSD[T]-F12b energy                -264.763253227547
  CCSD-T-F12b energy                 -264.759772340461
 !CCSD(T)-F12b total energy          -264.760709490437

 Timing summary (sec):

 STEP                 CPU(USER)    SYS     CPU(TOT)    WALL
 Transformation          3.71      0.51      4.22      4.21
 CCSD iterations        23.99      1.47     25.46     26.89
 Triples                67.89      1.47     69.36     69.33
 MP2-F12                 8.70      1.19      9.89      9.89
 F12b energy             1.77      0.04      1.81      1.82

 Program statistics:

 Available memory in ccsd:                99998934
 Min. memory needed in ccsd:               4419579
 Max. memory used in ccsd:                 5922321
 Max. memory used in cckext:               6231049 (10 integral passes)



 **********************************************************************************************************************************
 DATASETS  * FILE   NREC   LENGTH (MB)   RECORD NAMES
              1      20      268.24       500      610      700      900      950      970     1000      129      960     1100   
                                          VAR    BASINP    GEOM    SYMINP    ZMAT    AOBASIS   BASIS     P2S    ABASIS      S 
                                         1400     1410     1200     1210     1080     1600     1650     1700      960(1)  1380   
                                           T        V       H0       H01     AOSYM     SMH    MOLCAS    OPER    ABASIS    JKOP   

              2       5        1.51       700     1000     2100     7360     7350   
                                         GEOM     BASIS     RHF    F12ABS    EF12   

 PROGRAMS   *        TOTAL   CCSD(T)        HF       INT
 CPU TIMES  *       117.12    106.07      4.08      6.88
 REAL TIME  *       124.59 SEC
 DISK USED  *         2.41 GB      
 SF USED    *         1.52 GB      
 GA USED    *         2.40 MB       (max)       0.00 MB       (current)
 **********************************************************************************************************************************

     CCSD(T)-F12        HF-SCF  
   -264.76070949   -263.77002599
 **********************************************************************************************************************************
 Variable memory released
