
 Primary working directories    : /scratch/kee
 Secondary working directories  : /scratch/kee
 Wavefunction directory         : /home/kee/wfu/
 Main file repository           : /scratch/kee/

 ARCHNAME  : Linux/x86_64
 FC        : /opt/intel/composer_xe_2015.0.090/bin/intel64/ifort
 FCVERSION : 15.0.0
 BLASLIB   : -L/opt/intel/mkl/lib/intel64 -lmkl_intel_ilp64 -lmkl_sequential -lmkl_core
 id        : emory

 Nodes     nprocs
 node23       3
 Number of processes for MPI-2 version of Molpro:   nprocs(total)=    4   nprocs(compute)=    3   nprocs(helper)=    1
 ga_uses_ma=false, calling ma_init with nominal heap.
 GA-space will be limited to   8.0 MW (determined by -G option)

 Using customized tuning parameters: mindgm=7; mindgv=32; mindgc=1; mindgr=1; noblas=0; mincuda=1000; minvec=7
 default implementation of scratch files=sf  

 ***,co2h2o
 memory,100,m
 basis avtz
 geomtype = xyz
 geometry = {
 6
       0.00000777
 O    10.97257393   -1.10347931    0.00000000
 O    11.76744404    1.08065151   -0.00000000
 O    -1.30643718    0.00000000    0.00000000
 H    -2.05443226    0.58340495    0.10287003
 H    -0.55401198    0.58686026    0.10347930
 C    11.34356282    0.00000000    0.00000000
 }
 hf
 ccsd(t)-f12
 ---

 Variables initialized (665), CPU time= 0.01 sec
 Commands  initialized (462), CPU time= 0.00 sec, 486 directives.
 Default parameters read. Elapsed time= 0.03 sec

 Checking input...
 Passed
1


                                         ***  PROGRAM SYSTEM MOLPRO  ***
                         Copyright, University College Cardiff Consultants Limited, 2008

                                    Version 2010.1 linked 9 Dec 2014 15:06:28 


 **********************************************************************************************************************************
 LABEL *   co2h2o                                                                        
 Linux-2.6.32-504.el6.x86_64/node23(x86_64) 64 bit mpp version                           DATE: 18-Jan-17          TIME: 21:13:35  
 **********************************************************************************************************************************

 Patch level:      19
 **********************************************************************************************************************************

 Variable memory set to  100000000 words,  buffer space   230000 words

 SETTING BASIS          =    AVTZ
 SETTING GEOMTYPE       =    XYZ

Geometry recognized as XYZ



 Recomputing integrals since basis changed


 Using spherical harmonics

 Library entry O      S aug-cc-pVTZ          selected for orbital group  1
 Library entry O      P aug-cc-pVTZ          selected for orbital group  1
 Library entry O      D aug-cc-pVTZ          selected for orbital group  1
 Library entry O      F aug-cc-pVTZ          selected for orbital group  1
 Library entry H      S aug-cc-pVTZ          selected for orbital group  2
 Library entry H      P aug-cc-pVTZ          selected for orbital group  2
 Library entry H      D aug-cc-pVTZ          selected for orbital group  2
 Library entry C      S aug-cc-pVTZ          selected for orbital group  3
 Library entry C      P aug-cc-pVTZ          selected for orbital group  3
 Library entry C      D aug-cc-pVTZ          selected for orbital group  3
 Library entry C      F aug-cc-pVTZ          selected for orbital group  3

1PROGRAM * SEWARD (Integral evaluation for generally contracted gaussian basis sets)     Author: Roland Lindh, 1990

 Geometry written to block  1 of record 700


 Point group  C1  



 ATOMIC COORDINATES

 NR  ATOM    CHARGE       X              Y              Z

   1  O       8.00   20.735159684   -2.085273688    0.000000000
   2  O       8.00   22.237246502    2.042135397    0.000000000
   3  O       8.00   -2.468808478    0.000000000    0.000000000
   4  H       1.00   -3.882314327    1.102475579    0.194396184
   5  H       1.00   -1.046930916    1.109005169    0.195547537
   6  C       6.00   21.436227084    0.000000000    0.000000000

 Bond lengths in Bohr (Angstrom)

 1-6  2.199968602  2-6  2.193615529  3-4  1.803119814  3-5  1.813799081
     (1.164173245)     (1.160811343)     (0.954169911)     (0.959821135)

 Bond angles

  1-6-2  177.16520951   4-3-5  103.24222917

 NUCLEAR CHARGE:                   32
 NUMBER OF PRIMITIVE AOS:         322
 NUMBER OF SYMMETRY AOS:          282
 NUMBER OF CONTRACTIONS:          230   ( 230A   )
 NUMBER OF CORE ORBITALS:           4   (   4A   )
 NUMBER OF VALENCE ORBITALS:       18   (  18A   )


 NUCLEAR REPULSION ENERGY   76.64637576


 Eigenvalues of metric

         1 0.350E-03 0.385E-03 0.394E-03 0.420E-03 0.904E-03 0.923E-03 0.164E-02 0.176E-02


 Contracted 2-electron integrals neglected if value below      1.0D-11
 AO integral compression algorithm  1   Integral accuracy      1.0D-11

     341.311 MB (compressed) written to integral file ( 22.6%)

     Node minimum: 104.333 MB, node maximum: 129.761 MB


 NUMBER OF SORTED TWO-ELECTRON INTEGRALS:  117629820.     BUFFER LENGTH:  32768
 NUMBER OF SEGMENTS:   8  SEGMENT LENGTH:   15997437      RECORD LENGTH: 524288

 Memory used in sort:      16.55 MW

 SORT1 READ   188713814. AND WROTE    23289170. INTEGRALS IN     72 RECORDS. CPU TIME:     1.68 SEC, REAL TIME:     1.97 SEC
 SORT2 READ    69443392. AND WROTE   352862895. INTEGRALS IN   1485 RECORDS. CPU TIME:     0.82 SEC, REAL TIME:     1.02 SEC

 Node minimum:   117612110.  Node maximum:   117629820. integrals

 OPERATOR DM      FOR CENTER  0  COORDINATES:    0.000000    0.000000    0.000000


 **********************************************************************************************************************************
 DATASETS  * FILE   NREC   LENGTH (MB)   RECORD NAMES
              1      18        4.62       500      610      700      900      950      970     1000      129      960     1100   
                                          VAR    BASINP    GEOM    SYMINP    ZMAT    AOBASIS   BASIS     P2S    ABASIS      S 
                                         1400     1410     1200     1210     1080     1600     1650     1700   
                                           T        V       H0       H01     AOSYM     SMH    MOLCAS    OPER   

 PROGRAMS   *        TOTAL       INT
 CPU TIMES  *         4.33      4.26
 REAL TIME  *         5.07 SEC
 DISK USED  *         1.19 GB      
 GA USED    *         0.00 MB       (max)       0.00 MB       (current)
 **********************************************************************************************************************************

1PROGRAM * RHF-SCF (CLOSED SHELL)       Authors: W. Meyer, H.-J. Werner


 NUMBER OF ELECTRONS:      16+   16-    SPACE SYMMETRY=1    SPIN SYMMETRY=Singlet 
 CONVERGENCE THRESHOLDS:    1.00E-05 (Density)    1.00E-07 (Energy)
 MAX. NUMBER OF ITERATIONS:       60
 INTERPOLATION TYPE:            DIIS
 INTERPOLATION STEPS:              2 (START)      1 (STEP)
 LEVEL SHIFTS:                  0.00 (CLOSED)  0.00 (OPEN) 



 Orbital guess generated from atomic densities. Full valence occupancy:   22

 Molecular orbital dump at record        2100.2

 ITERATION    DDIFF          GRAD             ENERGY        2-EL.EN.            DIPOLE MOMENTS         DIIS
    1      0.000D+00      0.000D+00      -263.65951034    348.674386   -0.06882    1.17033    0.19888    0
    2      0.000D+00      0.469D-02      -263.72502224    344.158713   -0.01076    0.67389    0.11729    1
    3      0.752D-02      0.319D-02      -263.76858121    346.710632   -0.03301    0.79922    0.13677    2
    4      0.310D-02      0.300D-03      -263.76907787    346.497319   -0.03219    0.80174    0.13764    3
    5      0.356D-03      0.874D-04      -263.76913643    346.500547   -0.03194    0.79753    0.13666    4
    6      0.133D-03      0.354D-04      -263.76914370    346.514879   -0.03204    0.79755    0.13681    5
    7      0.443D-04      0.872D-05      -263.76914445    346.506706   -0.03193    0.79752    0.13673    6
    8      0.145D-04      0.207D-05      -263.76914449    346.507846   -0.03203    0.79726    0.13674    7
    9      0.399D-05      0.120D-05      -263.76914450    346.507815   -0.03195    0.79749    0.13673    0

 Final occupancy:  16

 !RHF STATE 1.1 Energy               -263.769144497800
 Nuclear energy                        76.64637576
 One-electron energy                 -513.66942799
 Two-electron energy                  173.25390773
 Virial quotient                       -1.00179938
 !RHF STATE 1.1 Dipole moment          -0.03194703     0.79748562     0.13673175
 Dipole moment /Debye                  -0.08119594     2.02687351     0.34751468

 Orbital energies:

         1.1          2.1          3.1          4.1          5.1          6.1          7.1          8.1          9.1         10.1
    -20.654205   -20.653070   -20.567853   -11.462510    -1.531159    -1.477855    -1.354819    -0.801501    -0.743596    -0.715643

        11.1         12.1         13.1         14.1         15.1         16.1         17.1         18.1
     -0.715179    -0.715164    -0.587642    -0.544878    -0.544825    -0.510906     0.029178     0.046536


 **********************************************************************************************************************************
 DATASETS  * FILE   NREC   LENGTH (MB)   RECORD NAMES
              1      18        4.62       500      610      700      900      950      970     1000      129      960     1100   
                                          VAR    BASINP    GEOM    SYMINP    ZMAT    AOBASIS   BASIS     P2S    ABASIS      S 
                                         1400     1410     1200     1210     1080     1600     1650     1700   
                                           T        V       H0       H01     AOSYM     SMH    MOLCAS    OPER   

              2       3        1.44       700     1000     2100   
                                         GEOM     BASIS     RHF  

 PROGRAMS   *        TOTAL        HF       INT
 CPU TIMES  *        11.01      6.68      4.26
 REAL TIME  *        11.93 SEC
 DISK USED  *         1.22 GB      
 SF USED    *         0.21 MB      
 GA USED    *         0.00 MB       (max)       0.00 MB       (current)
 **********************************************************************************************************************************


1PROGRAM * CCSD (Closed-shell coupled cluster)     Authors: C. Hampel, H.-J. Werner, 1991, M. Deegan, P.J. Knowles, 1992

                                  CCSD-F12 implementation by  H.-J. Werner, 2007

                   Density fitting integral evaluation by F.R. Manby, 2003,2007, G. Knizia, 2010

 Basis set CC-PVTZ/JKFIT generated.      Number of basis functions:   376 
 Basis set AUG-CC-PVTZ/MP2FIT generated. Number of basis functions:   516 

 Convergence thresholds:  THRVAR = 1.00D-08  THRDEN = 1.00D-06

 CCSD(T)     terms to be evaluated (factor= 1.000)


 Number of core orbitals:           4 (   4 )
 Number of closed-shell orbitals:  12 (  12 )
 Number of external orbitals:     214 ( 214 )

 Molecular orbitals read from record     2100.2  Type=RHF/CANONICAL (state 1.1)

 MP2-F12 correlation treatment (H.-J. Werner, 2006)
 --------------------------------------------------

 Using MP2-F12 with ansatz 3C(FIX)

 Using projected zeroth-order Hamiltonian (+Z)

 FOCKRIB=T FOCKRIC=T FOCKRIP=T CABSP=T CABSA=T CABSK=T CABSF=T GBC=F EBC=F DMAT=T NOFIK=T NOPAO=1 SOLVE=-1  USEPAO=0
 EXCH_A= T EXCH_B= F EXCH_C= F EXCH_P= F
 
 Geminal basis:    OPTFULL  GEM_TYPE=SLATER  BETA=1.0  NGEM=6

 Optimizing Gaussian exponents for each gem_beta

 Geminal optimization for beta= 1.0000
 Weight function:   m=0, omega= 1.4646

 Augmented Hessian optimization of geminal fit. Trust ratio= 0.40000
 Convergence reached after   2 iterations. Final gradient= 8.24D-16, Step= 4.32D-06, Delta= 1.28D-09
 
 Alpha:                 0.19532     0.81920     2.85917     9.50073    35.69989   197.79328
 Coeff:                 0.27070     0.30552     0.18297     0.10986     0.06810     0.04224
 

 All pairs explicitly correlated. Number of r12-pairs:           78
 
 AO(A)-basis ORBITAL           loaded. Number of functions:     230
 RI(R)-basis CC-PVTZ/JKFIT     loaded. Number of functions:     376
 DF-basis CC-PVTZ/JKFIT        loaded. Number of functions:     376

 Screening thresholds:   THRAO=  1.00D-10  THRMO=  1.00D-09  THRPROD=  1.00D-09
                         THRSW=  1.00D-05  THROV=  1.00D-12  THRF12=   1.00D-08

 CPU time for Fock operators                      0.83 sec
 
 Construction of ABS:
 Smallest eigenvalue of S          2.58E-04  (threshold= 1.00E-08)
 Ratio eigmin/eigmax               1.84E-06  (threshold= 1.00E-09)
 Smallest eigenvalue of S kept     2.58E-04  (threshold= 2.58E-04, 0 functions deleted, 376 kept)
 
 Construction of CABS:
 Smallest eigenvalue of S          2.30E-08  (threshold= 1.00E-08)
 Ratio eigmin/eigmax               2.30E-08  (threshold= 1.00E-09)
 Smallest eigenvalue of S kept     2.30E-08  (threshold= 2.30E-08, 0 functions deleted, 376 kept)
 
 CPU time for CABS singles                        0.15 sec

 CABS-singles contribution of  -0.01593116 patched into reference energy.
 New reference energy        -263.78507565
 
 AO(A)-basis ORBITAL           loaded. Number of functions:     230
 RI(R)-basis CC-PVTZ/JKFIT     loaded. Number of functions:     376
 DF-basis AUG-CC-PVTZ/MP2FIT   loaded. Number of functions:     516

 Screening thresholds:   THRAO=  1.00D-10  THRMO=  1.00D-09  THRPROD=  1.00D-09
                         THRSW=  1.00D-05  THROV=  1.00D-12  THRF12=   1.00D-08

 CPU time for 3-index integral evaluation         1.36 sec
 CPU time for first  half transformation          0.24 sec ( 7160.3 MFLOP/sec)
 CPU time for sorting                             0.12 sec
 CPU time for fitting                             0.05 sec (27861.0 MFLOP/sec)
 CPU time for tilde quantities                    0.06 sec (30814.7 MFLOP/sec)
 CPU time for assembly                            0.75 sec (31499.5 MFLOP/sec)
 CPU time for tranop_f12                          0.84 sec (35665.0 MFLOP/sec)
 CPU time for f12 integrals (total)               5.42 sec
 F12-matrices built in  3 passes.
 F12-matrices built in  3 passes.
 F12-matrices built in  3 passes.
 F12-matrices built in  3 passes.
 FC-matrix built in  3 passes.
 CPU time for f12 matrices (total)                0.47 sec

 Diagonal F12 approximation with fixed coefficients:  TSING= 0.500,  TTRIP= 0.250 (scaled by -1/beta)

 DF-MP2-F12 energy corrections:
 ------------------------------
 Approx.                                    Singlet             Triplet             Total
 DF-MP2-F12/3*C(DX,FIX)                -0.097444469881     -0.016933759121     -0.114378229002
 DF-MP2-F12/3*C(FIX)                   -0.079853562850     -0.013394888983     -0.093248451833
 DF-MP2-F12/3C(FIX)                    -0.080215038795     -0.013418684112     -0.093633722907

 DF-MP2-F12 correlation energies:
 --------------------------------
 Approx.                                    Singlet             Triplet             Ecorr            Total Energy
 DF-MP2                                -0.537791270317     -0.343133073770     -0.880924344088   -264.665999998457
 DF-MP2-F12/3*C(DX,FIX)                -0.635235740198     -0.360066832892     -0.995302573090   -264.780378227459
 DF-MP2-F12/3*C(FIX)                   -0.617644833167     -0.356527962753     -0.974172795920   -264.759248450289
 DF-MP2-F12/3C(FIX)                    -0.618006309112     -0.356551757883     -0.974558066994   -264.759633721363

 SCS-DF-MP2 energies (F_SING= 1.20000  F_TRIP= 0.62222  F_PARALLEL= 0.33333):
 ----------------------------------------------------------------------------
 SCS-DF-MP2                            -0.858854548060   -264.643930202429
 SCS-DF-MP2-F12/3*C(DX,FIX)            -0.986324473148   -264.771400127517
 SCS-DF-MP2-F12/3*C(FIX)               -0.963013421069   -264.748089075438
 SCS-DF-MP2-F12/3C(FIX)                -0.963461998061   -264.748537652430
 Symmetry transformation completed.

 Number of N-1 electron functions:              12
 Number of N-2 electron functions:              78
 Number of singly external CSFs:              2568
 Number of doubly external CSFs:           3298596
 Total number of CSFs:                     3301165

 Pair and operator lists are different

 Length of J-op  integral file:             474.22 MB
 Length of K-op  integral file:             572.29 MB
 Length of 3-ext integral record:             0.00 MB

 For full I/O caching in triples, increase memory by 50.81 Mwords to 151.09 Mwords.

 Integral transformation finished. Total CPU:  11.11 sec, npass=  1  Memory used:  87.46 MW

 Reference energy:                   -263.78507565

 Adding F12 terms to K(Cij), methodcc=6,  factor=1.0

 ITER.      SQ.NORM     CORR.ENERGY   TOTAL ENERGY   ENERGY CHANGE        DEN1      VAR(S)    VAR(P)  DIIS     TIME
   1      1.20216894    -0.86285535  -264.64793101     0.01808535     0.04674953  0.72D-02  0.56D-02  1  1    24.42
   2      1.21649287    -0.85861621  -264.64369186     0.00423915    -0.02017012  0.86D-04  0.59D-03  2  2    30.54
   3      1.22185674    -0.85871149  -264.64378714    -0.00009528    -0.00236196  0.13D-03  0.32D-04  3  3    36.67
   4      1.22466331    -0.85858289  -264.64365854     0.00012860    -0.00141260  0.76D-05  0.41D-05  4  4    43.29
   5      1.22569656    -0.85854492  -264.64362058     0.00003796    -0.00036738  0.56D-06  0.29D-06  5  5    49.75
   6      1.22585924    -0.85851799  -264.64359364     0.00002694    -0.00000807  0.40D-07  0.24D-07  6  6    55.86
   7      1.22588874    -0.85851554  -264.64359120     0.00000244    -0.00000622  0.26D-08  0.40D-08  6  4    62.16
   8      1.22588909    -0.85851504  -264.64359070     0.00000050     0.00000193  0.40D-09  0.28D-09  6  1    68.26
   9      1.22588968    -0.85851511  -264.64359077    -0.00000007     0.00000058  0.27D-10  0.22D-10  6  2    74.36

 Norm of t1 vector:      0.10606644      S-energy:     0.00000022      T1 diagnostic:  0.01530937
                                                                       D1 diagnostic:  0.04500950

 Adding energy correction from Wij-K(Fij), methodcc=6  factor=1.0
 
  CCSD correlation energy              -0.858515112018
  MP2-F12 correction (uncoupled)       -0.092475166066
  C*T doubles correction               -0.001477526233
  f12b correction                       0.015405137772


 Total CPU time for triples:    194.72 sec


 RESULTS
 =======

  Reference energy                   -263.769144497800
  F12 singles correction               -0.015931156569

 F12 singles corrections added to reference energy

  New reference energy               -263.785075654369

  F12a singlet correction              -0.080415782048
  F12a triplet correction              -0.013536910251
  F12a total correction                -0.093952692299

 F12a corrections for ansatz F12/3C(FIX) added to CCSD energy
 
  CCSD-F12a singlet pair energy        -0.641930473979
  CCSD-F12a triplet pair energy        -0.310537550226
  CCSD-F12a correlation energy         -0.952467804317

  Triples (T) contribution             -0.037658438769
  Total correlation energy             -0.990126243087

  CCSD-F12a total energy             -264.737543458686
  CCSD[T]-F12a energy                -264.777750572597
  CCSD-T-F12a energy                 -264.774262708819
 !CCSD(T)-F12a total energy          -264.775201897456

 F12b corrections for ansatz F12/3C(FIX) added to CCSD(T)-F12a energy

  CCSD-F12b singlet pair energy        -0.627748461064
  CCSD-F12b triplet pair energy        -0.309314425369
  CCSD-F12b correlation energy         -0.937062666545

  Triples (T) contribution             -0.037658438769
  Total correlation energy             -0.974721105315

  CCSD-F12b total energy             -264.722138320914
  CCSD[T]-F12b energy                -264.762345434825
  CCSD-T-F12b energy                 -264.758857571047
 !CCSD(T)-F12b total energy          -264.759796759684

 Timing summary (sec):

 STEP                 CPU(USER)    SYS     CPU(TOT)    WALL
 Transformation         11.22      1.12     12.34     12.35
 CCSD iterations        55.75      2.89     58.64     58.74
 Triples               194.72      2.56    197.28    197.25
 MP2-F12                 7.42      1.11      8.53      8.54
 F12b energy             3.48      0.03      3.51      3.50

 Program statistics:

 Available memory in ccsd:                99998934
 Min. memory needed in ccsd:               8644845
 Max. memory used in ccsd:                11598633
 Max. memory used in cckext:               8768967 (10 integral passes)



 **********************************************************************************************************************************
 DATASETS  * FILE   NREC   LENGTH (MB)   RECORD NAMES
              1      20      527.84       500      610      700      900      950      970     1000      129      960     1100   
                                          VAR    BASINP    GEOM    SYMINP    ZMAT    AOBASIS   BASIS     P2S    ABASIS      S 
                                         1400     1410     1200     1210     1080     1600     1650     1700      960(1)  1380   
                                           T        V       H0       H01     AOSYM     SMH    MOLCAS    OPER    ABASIS    JKOP   

              2       5        2.50       700     1000     2100     7360     7350   
                                         GEOM     BASIS     RHF    F12ABS    EF12   

 PROGRAMS   *        TOTAL   CCSD(T)        HF       INT
 CPU TIMES  *       283.71    272.70      6.68      4.26
 REAL TIME  *       292.71 SEC
 DISK USED  *         2.09 GB      
 SF USED    *         1.91 GB      
 GA USED    *         2.40 MB       (max)       0.00 MB       (current)
 **********************************************************************************************************************************

     CCSD(T)-F12        HF-SCF  
   -264.75979676   -263.76914450
 **********************************************************************************************************************************
 Variable memory released
