
 Primary working directories    : /scratch/kee
 Secondary working directories  : /scratch/kee
 Wavefunction directory         : /home/kee/wfu/
 Main file repository           : /scratch/kee/

 ARCHNAME  : Linux/x86_64
 FC        : /opt/intel/composer_xe_2015.0.090/bin/intel64/ifort
 FCVERSION : 15.0.0
 BLASLIB   : -L/opt/intel/mkl/lib/intel64 -lmkl_intel_ilp64 -lmkl_sequential -lmkl_core
 id        : emory

 Nodes     nprocs
 node23       3
 Number of processes for MPI-2 version of Molpro:   nprocs(total)=    4   nprocs(compute)=    3   nprocs(helper)=    1
 ga_uses_ma=false, calling ma_init with nominal heap.
 GA-space will be limited to   8.0 MW (determined by -G option)

 Using customized tuning parameters: mindgm=7; mindgv=32; mindgc=1; mindgr=1; noblas=0; mincuda=1000; minvec=7
 default implementation of scratch files=sf  

 ***,co2h2o
 memory,100,m
 basis avtz
 geomtype = xyz
 geometry = {
 6
       0.00000777
 O    10.97257393   -1.10347931    0.00000000
 O    11.76744404    1.08065151   -0.00000000
 O    -1.50643718    0.00000000    0.00000000
 H    -2.25443226    0.58340495    0.10287003
 H    -0.75401198    0.58686026    0.10347930
 C    11.34356282    0.00000000    0.00000000
 }
 hf
 ccsd(t)-f12
 ---

 Variables initialized (665), CPU time= 0.01 sec
 Commands  initialized (462), CPU time= 0.01 sec, 486 directives.
 Default parameters read. Elapsed time= 0.03 sec

 Checking input...
 Passed
1


                                         ***  PROGRAM SYSTEM MOLPRO  ***
                         Copyright, University College Cardiff Consultants Limited, 2008

                                    Version 2010.1 linked 9 Dec 2014 15:06:28 


 **********************************************************************************************************************************
 LABEL *   co2h2o                                                                        
 Linux-2.6.32-504.el6.x86_64/node23(x86_64) 64 bit mpp version                           DATE: 18-Jan-17          TIME: 21:34:27  
 **********************************************************************************************************************************

 Patch level:      19
 **********************************************************************************************************************************

 Variable memory set to  100000000 words,  buffer space   230000 words

 SETTING BASIS          =    AVTZ
 SETTING GEOMTYPE       =    XYZ

Geometry recognized as XYZ



 Recomputing integrals since basis changed


 Using spherical harmonics

 Library entry O      S aug-cc-pVTZ          selected for orbital group  1
 Library entry O      P aug-cc-pVTZ          selected for orbital group  1
 Library entry O      D aug-cc-pVTZ          selected for orbital group  1
 Library entry O      F aug-cc-pVTZ          selected for orbital group  1
 Library entry H      S aug-cc-pVTZ          selected for orbital group  2
 Library entry H      P aug-cc-pVTZ          selected for orbital group  2
 Library entry H      D aug-cc-pVTZ          selected for orbital group  2
 Library entry C      S aug-cc-pVTZ          selected for orbital group  3
 Library entry C      P aug-cc-pVTZ          selected for orbital group  3
 Library entry C      D aug-cc-pVTZ          selected for orbital group  3
 Library entry C      F aug-cc-pVTZ          selected for orbital group  3

1PROGRAM * SEWARD (Integral evaluation for generally contracted gaussian basis sets)     Author: Roland Lindh, 1990

 Geometry written to block  1 of record 700


 Point group  C1  



 ATOMIC COORDINATES

 NR  ATOM    CHARGE       X              Y              Z

   1  O       8.00   20.735159684   -2.085273688    0.000000000
   2  O       8.00   22.237246502    2.042135397    0.000000000
   3  O       8.00   -2.846753704    0.000000000    0.000000000
   4  H       1.00   -4.260259553    1.102475579    0.194396184
   5  H       1.00   -1.424876142    1.109005169    0.195547537
   6  C       6.00   21.436227084    0.000000000    0.000000000

 Bond lengths in Bohr (Angstrom)

 1-6  2.199968602  2-6  2.193615529  3-4  1.803119814  3-5  1.813799081
     (1.164173245)     (1.160811343)     (0.954169911)     (0.959821135)

 Bond angles

  1-6-2  177.16520951   4-3-5  103.24222917

 NUCLEAR CHARGE:                   32
 NUMBER OF PRIMITIVE AOS:         322
 NUMBER OF SYMMETRY AOS:          282
 NUMBER OF CONTRACTIONS:          230   ( 230A   )
 NUMBER OF CORE ORBITALS:           4   (   4A   )
 NUMBER OF VALENCE ORBITALS:       18   (  18A   )


 NUCLEAR REPULSION ENERGY   76.50423150


 Eigenvalues of metric

         1 0.350E-03 0.385E-03 0.395E-03 0.420E-03 0.904E-03 0.923E-03 0.164E-02 0.176E-02


 Contracted 2-electron integrals neglected if value below      1.0D-11
 AO integral compression algorithm  1   Integral accuracy      1.0D-11

     338.690 MB (compressed) written to integral file ( 23.1%)

     Node minimum: 96.469 MB, node maximum: 130.286 MB


 NUMBER OF SORTED TWO-ELECTRON INTEGRALS:  117629820.     BUFFER LENGTH:  32768
 NUMBER OF SEGMENTS:   8  SEGMENT LENGTH:   15997437      RECORD LENGTH: 524288

 Memory used in sort:      16.55 MW

 SORT1 READ   183502953. AND WROTE    23172262. INTEGRALS IN     71 RECORDS. CPU TIME:     1.63 SEC, REAL TIME:     1.89 SEC
 SORT2 READ    69087070. AND WROTE   352862895. INTEGRALS IN   1104 RECORDS. CPU TIME:     0.77 SEC, REAL TIME:     1.00 SEC

 Node minimum:   117612110.  Node maximum:   117629820. integrals

 OPERATOR DM      FOR CENTER  0  COORDINATES:    0.000000    0.000000    0.000000


 **********************************************************************************************************************************
 DATASETS  * FILE   NREC   LENGTH (MB)   RECORD NAMES
              1      18        4.62       500      610      700      900      950      970     1000      129      960     1100   
                                          VAR    BASINP    GEOM    SYMINP    ZMAT    AOBASIS   BASIS     P2S    ABASIS      S 
                                         1400     1410     1200     1210     1080     1600     1650     1700   
                                           T        V       H0       H01     AOSYM     SMH    MOLCAS    OPER   

 PROGRAMS   *        TOTAL       INT
 CPU TIMES  *         4.36      4.28
 REAL TIME  *         4.99 SEC
 DISK USED  *         1.17 GB      
 GA USED    *         0.00 MB       (max)       0.00 MB       (current)
 **********************************************************************************************************************************

1PROGRAM * RHF-SCF (CLOSED SHELL)       Authors: W. Meyer, H.-J. Werner


 NUMBER OF ELECTRONS:      16+   16-    SPACE SYMMETRY=1    SPIN SYMMETRY=Singlet 
 CONVERGENCE THRESHOLDS:    1.00E-05 (Density)    1.00E-07 (Energy)
 MAX. NUMBER OF ITERATIONS:       60
 INTERPOLATION TYPE:            DIIS
 INTERPOLATION STEPS:              2 (START)      1 (STEP)
 LEVEL SHIFTS:                  0.00 (CLOSED)  0.00 (OPEN) 



 Orbital guess generated from atomic densities. Full valence occupancy:   22

 Molecular orbital dump at record        2100.2

 ITERATION    DDIFF          GRAD             ENERGY        2-EL.EN.            DIPOLE MOMENTS         DIIS
    1      0.000D+00      0.000D+00      -263.65951212    348.390571   -0.06882    1.17033    0.19888    0
    2      0.000D+00      0.469D-02      -263.72502370    343.874727   -0.01074    0.67400    0.11730    1
    3      0.752D-02      0.319D-02      -263.76858195    346.426701   -0.03301    0.79927    0.13678    2
    4      0.310D-02      0.300D-03      -263.76907861    346.213385   -0.03218    0.80180    0.13764    3
    5      0.356D-03      0.874D-04      -263.76913718    346.216611   -0.03193    0.79759    0.13666    4
    6      0.133D-03      0.354D-04      -263.76914445    346.230942   -0.03203    0.79761    0.13682    5
    7      0.443D-04      0.871D-05      -263.76914519    346.222768   -0.03192    0.79758    0.13674    6
    8      0.145D-04      0.207D-05      -263.76914524    346.223910   -0.03203    0.79732    0.13674    7
    9      0.399D-05      0.119D-05      -263.76914524    346.223878   -0.03194    0.79755    0.13674    0

 Final occupancy:  16

 !RHF STATE 1.1 Energy               -263.769145242462
 Nuclear energy                        76.50423150
 One-electron energy                 -513.38531560
 Two-electron energy                  173.11193886
 Virial quotient                       -1.00179938
 !RHF STATE 1.1 Dipole moment          -0.03193909     0.79754703     0.13673744
 Dipole moment /Debye                  -0.08117576     2.02702959     0.34752914

 Orbital energies:

         1.1          2.1          3.1          4.1          5.1          6.1          7.1          8.1          9.1         10.1
    -20.654199   -20.653066   -20.567846   -11.462505    -1.531154    -1.477850    -1.354813    -0.801496    -0.743592    -0.715637

        11.1         12.1         13.1         14.1         15.1         16.1         17.1         18.1
     -0.715173    -0.715158    -0.587636    -0.544873    -0.544820    -0.510900     0.029190     0.046678


 **********************************************************************************************************************************
 DATASETS  * FILE   NREC   LENGTH (MB)   RECORD NAMES
              1      18        4.62       500      610      700      900      950      970     1000      129      960     1100   
                                          VAR    BASINP    GEOM    SYMINP    ZMAT    AOBASIS   BASIS     P2S    ABASIS      S 
                                         1400     1410     1200     1210     1080     1600     1650     1700   
                                           T        V       H0       H01     AOSYM     SMH    MOLCAS    OPER   

              2       3        1.44       700     1000     2100   
                                         GEOM     BASIS     RHF  

 PROGRAMS   *        TOTAL        HF       INT
 CPU TIMES  *        11.09      6.73      4.28
 REAL TIME  *        12.13 SEC
 DISK USED  *         1.21 GB      
 SF USED    *         0.21 MB      
 GA USED    *         0.00 MB       (max)       0.00 MB       (current)
 **********************************************************************************************************************************


1PROGRAM * CCSD (Closed-shell coupled cluster)     Authors: C. Hampel, H.-J. Werner, 1991, M. Deegan, P.J. Knowles, 1992

                                  CCSD-F12 implementation by  H.-J. Werner, 2007

                   Density fitting integral evaluation by F.R. Manby, 2003,2007, G. Knizia, 2010

 Basis set CC-PVTZ/JKFIT generated.      Number of basis functions:   376 
 Basis set AUG-CC-PVTZ/MP2FIT generated. Number of basis functions:   516 

 Convergence thresholds:  THRVAR = 1.00D-08  THRDEN = 1.00D-06

 CCSD(T)     terms to be evaluated (factor= 1.000)


 Number of core orbitals:           4 (   4 )
 Number of closed-shell orbitals:  12 (  12 )
 Number of external orbitals:     214 ( 214 )

 Molecular orbitals read from record     2100.2  Type=RHF/CANONICAL (state 1.1)

 MP2-F12 correlation treatment (H.-J. Werner, 2006)
 --------------------------------------------------

 Using MP2-F12 with ansatz 3C(FIX)

 Using projected zeroth-order Hamiltonian (+Z)

 FOCKRIB=T FOCKRIC=T FOCKRIP=T CABSP=T CABSA=T CABSK=T CABSF=T GBC=F EBC=F DMAT=T NOFIK=T NOPAO=1 SOLVE=-1  USEPAO=0
 EXCH_A= T EXCH_B= F EXCH_C= F EXCH_P= F
 
 Geminal basis:    OPTFULL  GEM_TYPE=SLATER  BETA=1.0  NGEM=6

 Optimizing Gaussian exponents for each gem_beta

 Geminal optimization for beta= 1.0000
 Weight function:   m=0, omega= 1.4646

 Augmented Hessian optimization of geminal fit. Trust ratio= 0.40000
 Convergence reached after   2 iterations. Final gradient= 8.24D-16, Step= 4.32D-06, Delta= 1.28D-09
 
 Alpha:                 0.19532     0.81920     2.85917     9.50073    35.69989   197.79328
 Coeff:                 0.27070     0.30552     0.18297     0.10986     0.06810     0.04224
 

 All pairs explicitly correlated. Number of r12-pairs:           78
 
 AO(A)-basis ORBITAL           loaded. Number of functions:     230
 RI(R)-basis CC-PVTZ/JKFIT     loaded. Number of functions:     376
 DF-basis CC-PVTZ/JKFIT        loaded. Number of functions:     376

 Screening thresholds:   THRAO=  1.00D-10  THRMO=  1.00D-09  THRPROD=  1.00D-09
                         THRSW=  1.00D-05  THROV=  1.00D-12  THRF12=   1.00D-08

 CPU time for Fock operators                      0.87 sec
 
 Construction of ABS:
 Smallest eigenvalue of S          2.58E-04  (threshold= 1.00E-08)
 Ratio eigmin/eigmax               1.84E-06  (threshold= 1.00E-09)
 Smallest eigenvalue of S kept     2.58E-04  (threshold= 2.58E-04, 0 functions deleted, 376 kept)
 
 Construction of CABS:
 Smallest eigenvalue of S          2.30E-08  (threshold= 1.00E-08)
 Ratio eigmin/eigmax               2.30E-08  (threshold= 1.00E-09)
 Smallest eigenvalue of S kept     2.30E-08  (threshold= 2.30E-08, 0 functions deleted, 376 kept)
 
 CPU time for CABS singles                        0.16 sec

 CABS-singles contribution of  -0.01593115 patched into reference energy.
 New reference energy        -263.78507639
 
 AO(A)-basis ORBITAL           loaded. Number of functions:     230
 RI(R)-basis CC-PVTZ/JKFIT     loaded. Number of functions:     376
 DF-basis AUG-CC-PVTZ/MP2FIT   loaded. Number of functions:     516

 Screening thresholds:   THRAO=  1.00D-10  THRMO=  1.00D-09  THRPROD=  1.00D-09
                         THRSW=  1.00D-05  THROV=  1.00D-12  THRF12=   1.00D-08

 CPU time for 3-index integral evaluation         1.54 sec
 CPU time for first  half transformation          0.11 sec (11516.3 MFLOP/sec)
 CPU time for second half transformation          0.04 sec ( 1825.0 MFLOP/sec)
 CPU time for sorting                             0.15 sec
 CPU time for fitting                             0.05 sec (27861.0 MFLOP/sec)
 CPU time for tilde quantities                    0.07 sec (26412.6 MFLOP/sec)
 CPU time for assembly                            0.84 sec (27082.5 MFLOP/sec)
 CPU time for tranop_f12                          0.88 sec (34293.3 MFLOP/sec)
 CPU time for f12 integrals (total)               5.68 sec
 F12-matrices built in  3 passes.
 F12-matrices built in  3 passes.
 F12-matrices built in  3 passes.
 F12-matrices built in  3 passes.
 FC-matrix built in  3 passes.
 CPU time for f12 matrices (total)                0.51 sec

 Diagonal F12 approximation with fixed coefficients:  TSING= 0.500,  TTRIP= 0.250 (scaled by -1/beta)

 DF-MP2-F12 energy corrections:
 ------------------------------
 Approx.                                    Singlet             Triplet             Total
 DF-MP2-F12/3*C(DX,FIX)                -0.097444477052     -0.016933759815     -0.114378236867
 DF-MP2-F12/3*C(FIX)                   -0.079853571810     -0.013394889227     -0.093248461037
 DF-MP2-F12/3C(FIX)                    -0.080215047262     -0.013418683955     -0.093633731218

 DF-MP2-F12 correlation energies:
 --------------------------------
 Approx.                                    Singlet             Triplet             Ecorr            Total Energy
 DF-MP2                                -0.537791149864     -0.343132951624     -0.880924101489   -264.666000492948
 DF-MP2-F12/3*C(DX,FIX)                -0.635235626917     -0.360066711439     -0.995302338356   -264.780378729816
 DF-MP2-F12/3*C(FIX)                   -0.617644721675     -0.356527840851     -0.974172562526   -264.759248953986
 DF-MP2-F12/3C(FIX)                    -0.618006197126     -0.356551635580     -0.974557832706   -264.759634224166

 SCS-DF-MP2 energies (F_SING= 1.20000  F_TRIP= 0.62222  F_PARALLEL= 0.33333):
 ----------------------------------------------------------------------------
 SCS-DF-MP2                            -0.858854327514   -264.643930718974
 SCS-DF-MP2-F12/3*C(DX,FIX)            -0.986324261640   -264.771400653100
 SCS-DF-MP2-F12/3*C(FIX)               -0.963013211428   -264.748089602888
 SCS-DF-MP2-F12/3C(FIX)                -0.963461787579   -264.748538179039
 Symmetry transformation completed.

 Number of N-1 electron functions:              12
 Number of N-2 electron functions:              78
 Number of singly external CSFs:              2568
 Number of doubly external CSFs:           3298596
 Total number of CSFs:                     3301165

 Pair and operator lists are different

 Length of J-op  integral file:             474.22 MB
 Length of K-op  integral file:             572.29 MB
 Length of 3-ext integral record:             0.00 MB

 For full I/O caching in triples, increase memory by 50.81 Mwords to 151.09 Mwords.

 Integral transformation finished. Total CPU:  11.86 sec, npass=  1  Memory used:  87.46 MW

 Reference energy:                   -263.78507639

 Adding F12 terms to K(Cij), methodcc=6,  factor=1.0

 ITER.      SQ.NORM     CORR.ENERGY   TOTAL ENERGY   ENERGY CHANGE        DEN1      VAR(S)    VAR(P)  DIIS     TIME
   1      1.20216884    -0.86285516  -264.64793155     0.01808530     0.04674944  0.72D-02  0.56D-02  1  1    26.11
   2      1.21649275    -0.85861602  -264.64369242     0.00423914    -0.02017010  0.86D-04  0.59D-03  2  2    33.11
   3      1.22185662    -0.85871131  -264.64378770    -0.00009529    -0.00236197  0.13D-03  0.32D-04  3  3    41.36
   4      1.22466318    -0.85858271  -264.64365910     0.00012860    -0.00141260  0.76D-05  0.41D-05  4  4    48.42
   5      1.22569643    -0.85854474  -264.64362114     0.00003796    -0.00036738  0.56D-06  0.29D-06  5  5    55.28
   6      1.22585911    -0.85851781  -264.64359420     0.00002694    -0.00000807  0.40D-07  0.24D-07  6  6    62.14
   7      1.22588861    -0.85851536  -264.64359175     0.00000244    -0.00000622  0.26D-08  0.40D-08  6  4    69.03
   8      1.22588896    -0.85851486  -264.64359126     0.00000050     0.00000193  0.40D-09  0.28D-09  6  1    75.77
   9      1.22588956    -0.85851493  -264.64359132    -0.00000007     0.00000058  0.27D-10  0.22D-10  6  2    82.63

 Norm of t1 vector:      0.10606641      S-energy:     0.00000022      T1 diagnostic:  0.01530937
                                                                       D1 diagnostic:  0.04500954

 Adding energy correction from Wij-K(Fij), methodcc=6  factor=1.0
 
  CCSD correlation energy              -0.858514932631
  MP2-F12 correction (uncoupled)       -0.092475175188
  C*T doubles correction               -0.001477525783
  f12b correction                       0.015405137454


 Total CPU time for triples:    196.60 sec


 RESULTS
 =======

  Reference energy                   -263.769145242462
  F12 singles correction               -0.015931148998

 F12 singles corrections added to reference energy

  New reference energy               -263.785076391460

  F12a singlet correction              -0.080415790455
  F12a triplet correction              -0.013536910516
  F12a total correction                -0.093952700971

 F12a corrections for ansatz F12/3C(FIX) added to CCSD energy
 
  CCSD-F12a singlet pair energy        -0.641930375623
  CCSD-F12a triplet pair energy        -0.310537474818
  CCSD-F12a correlation energy         -0.952467633602

  Triples (T) contribution             -0.037658403647
  Total correlation energy             -0.990126037249

  CCSD-F12a total energy             -264.737544025062
  CCSD[T]-F12a energy                -264.777751099385
  CCSD-T-F12a energy                 -264.774263241955
 !CCSD(T)-F12a total energy          -264.775202428708

 F12b corrections for ansatz F12/3C(FIX) added to CCSD(T)-F12a energy

  CCSD-F12b singlet pair energy        -0.627748362980
  CCSD-F12b triplet pair energy        -0.309314350008
  CCSD-F12b correlation energy         -0.937062496148

  Triples (T) contribution             -0.037658403647
  Total correlation energy             -0.974720899795

  CCSD-F12b total energy             -264.722138887608
  CCSD[T]-F12b energy                -264.762345961932
  CCSD-T-F12b energy                 -264.758858104501
 !CCSD(T)-F12b total energy          -264.759797291255

 Timing summary (sec):

 STEP                 CPU(USER)    SYS     CPU(TOT)    WALL
 Transformation         11.97      1.12     13.09     13.09
 CCSD iterations        62.90      2.93     65.83     65.80
 Triples               196.60      2.28    198.88    198.80
 MP2-F12                 7.79      1.09      8.88      8.90
 F12b energy             3.83      0.04      3.87      3.87

 Program statistics:

 Available memory in ccsd:                99998934
 Min. memory needed in ccsd:               8644845
 Max. memory used in ccsd:                11598633
 Max. memory used in cckext:               8768967 (10 integral passes)



 **********************************************************************************************************************************
 DATASETS  * FILE   NREC   LENGTH (MB)   RECORD NAMES
              1      20      527.84       500      610      700      900      950      970     1000      129      960     1100   
                                          VAR    BASINP    GEOM    SYMINP    ZMAT    AOBASIS   BASIS     P2S    ABASIS      S 
                                         1400     1410     1200     1210     1080     1600     1650     1700      960(1)  1380   
                                           T        V       H0       H01     AOSYM     SMH    MOLCAS    OPER    ABASIS    JKOP   

              2       5        2.50       700     1000     2100     7360     7350   
                                         GEOM     BASIS     RHF    F12ABS    EF12   

 PROGRAMS   *        TOTAL   CCSD(T)        HF       INT
 CPU TIMES  *       294.30    283.21      6.73      4.28
 REAL TIME  *       302.97 SEC
 DISK USED  *         2.07 GB      
 SF USED    *         1.91 GB      
 GA USED    *         2.40 MB       (max)       0.00 MB       (current)
 **********************************************************************************************************************************

     CCSD(T)-F12        HF-SCF  
   -264.75979729   -263.76914524
 **********************************************************************************************************************************
 Variable memory released
