
 Primary working directories    : /scratch/kee
 Secondary working directories  : /scratch/kee
 Wavefunction directory         : /home/kee/wfu/
 Main file repository           : /scratch/kee/

 ARCHNAME  : Linux/x86_64
 FC        : /opt/intel/composer_xe_2015.0.090/bin/intel64/ifort
 FCVERSION : 15.0.0
 BLASLIB   : -L/opt/intel/mkl/lib/intel64 -lmkl_intel_ilp64 -lmkl_sequential -lmkl_core
 id        : emory

 Nodes     nprocs
 node16       3
 Number of processes for MPI-2 version of Molpro:   nprocs(total)=    4   nprocs(compute)=    3   nprocs(helper)=    1
 ga_uses_ma=false, calling ma_init with nominal heap.
 GA-space will be limited to   8.0 MW (determined by -G option)

 Using customized tuning parameters: mindgm=7; mindgv=32; mindgc=1; mindgr=1; noblas=0; mincuda=1000; minvec=7
 default implementation of scratch files=sf  

 ***,co2h2o
 memory,100,m
 basis avtz
 geomtype = xyz
 geometry = {
 6
       0.00000000
 O     0.00032100    1.15989800    0.00000000
 O     0.00041400   -1.15989400    0.00000000
 O    15.31155776   11.23689822    4.03067208
 H    16.10311228   11.54585387    3.58832344
 H    15.62554357   10.75827047    4.79879431
 C     0.01953800    0.00000300    0.00000000
 }
 hf
 ccsd(t)-f12
 ---

 Variables initialized (665), CPU time= 0.01 sec
 Commands  initialized (462), CPU time= 0.00 sec, 486 directives.
 Default parameters read. Elapsed time= 0.04 sec

 Checking input...
 Passed
1


                                         ***  PROGRAM SYSTEM MOLPRO  ***
                         Copyright, University College Cardiff Consultants Limited, 2008

                                    Version 2010.1 linked 9 Dec 2014 15:06:28 


 **********************************************************************************************************************************
 LABEL *   co2h2o                                                                        
 Linux-2.6.32-504.el6.x86_64/node16(x86_64) 64 bit mpp version                           DATE: 15-Dec-16          TIME: 00:56:46  
 **********************************************************************************************************************************

 Patch level:      19
 **********************************************************************************************************************************

 Variable memory set to  100000000 words,  buffer space   230000 words

 SETTING BASIS          =    AVTZ
 SETTING GEOMTYPE       =    XYZ

Geometry recognized as XYZ



 Recomputing integrals since basis changed


 Using spherical harmonics

 Library entry O      S aug-cc-pVTZ          selected for orbital group  1
 Library entry O      P aug-cc-pVTZ          selected for orbital group  1
 Library entry O      D aug-cc-pVTZ          selected for orbital group  1
 Library entry O      F aug-cc-pVTZ          selected for orbital group  1
 Library entry H      S aug-cc-pVTZ          selected for orbital group  2
 Library entry H      P aug-cc-pVTZ          selected for orbital group  2
 Library entry H      D aug-cc-pVTZ          selected for orbital group  2
 Library entry C      S aug-cc-pVTZ          selected for orbital group  3
 Library entry C      P aug-cc-pVTZ          selected for orbital group  3
 Library entry C      D aug-cc-pVTZ          selected for orbital group  3
 Library entry C      F aug-cc-pVTZ          selected for orbital group  3

1PROGRAM * SEWARD (Integral evaluation for generally contracted gaussian basis sets)     Author: Roland Lindh, 1990

 Geometry written to block  1 of record 700


 Point group  C1  



 ATOMIC COORDINATES

 NR  ATOM    CHARGE       X              Y              Z

   1  O       8.00    0.000606602    2.191889560    0.000000000
   2  O       8.00    0.000782347   -2.191882001    0.000000000
   3  O       8.00   28.934650812   21.234660202    7.616866357
   4  H       1.00   30.430472073   21.818501768    6.780948573
   5  H       1.00   29.527998002   20.330184836    9.068407007
   6  C       6.00    0.036921469    0.000005669    0.000000000

 Bond lengths in Bohr (Angstrom)

 1-6  2.192184701  2-6  2.192185575  3-4  1.810279194  3-5  1.810278110
     (1.160054182)     (1.160054644)     (0.957958491)     (0.957957918)

 Bond angles

  1-6-2  178.10622893   4-3-5  105.10354935

 NUCLEAR CHARGE:                   32
 NUMBER OF PRIMITIVE AOS:         322
 NUMBER OF SYMMETRY AOS:          282
 NUMBER OF CONTRACTIONS:          230   ( 230A   )
 NUMBER OF CORE ORBITALS:           4   (   4A   )
 NUMBER OF VALENCE ORBITALS:       18   (  18A   )


 NUCLEAR REPULSION ENERGY   73.54886986


 Eigenvalues of metric

         1 0.348E-03 0.384E-03 0.392E-03 0.419E-03 0.896E-03 0.914E-03 0.167E-02 0.174E-02


 Contracted 2-electron integrals neglected if value below      1.0D-11
 AO integral compression algorithm  1   Integral accuracy      1.0D-11

     327.156 MB (compressed) written to integral file ( 33.5%)

     Node minimum: 94.896 MB, node maximum: 120.324 MB


 NUMBER OF SORTED TWO-ELECTRON INTEGRALS:  117629820.     BUFFER LENGTH:  32768
 NUMBER OF SEGMENTS:   8  SEGMENT LENGTH:   15997437      RECORD LENGTH: 524288

 Memory used in sort:      16.55 MW

 SORT1 READ   122113333. AND WROTE    23574481. INTEGRALS IN     73 RECORDS. CPU TIME:     1.52 SEC, REAL TIME:     1.77 SEC
 SORT2 READ    70237705. AND WROTE   352862895. INTEGRALS IN   1281 RECORDS. CPU TIME:     0.87 SEC, REAL TIME:     1.11 SEC

 Node minimum:   117612110.  Node maximum:   117629820. integrals

 OPERATOR DM      FOR CENTER  0  COORDINATES:    0.000000    0.000000    0.000000


 **********************************************************************************************************************************
 DATASETS  * FILE   NREC   LENGTH (MB)   RECORD NAMES
              1      18        4.62       500      610      700      900      950      970     1000      129      960     1100   
                                          VAR    BASINP    GEOM    SYMINP    ZMAT    AOBASIS   BASIS     P2S    ABASIS      S 
                                         1400     1410     1200     1210     1080     1600     1650     1700   
                                           T        V       H0       H01     AOSYM     SMH    MOLCAS    OPER   

 PROGRAMS   *        TOTAL       INT
 CPU TIMES  *         4.31      4.24
 REAL TIME  *         4.93 SEC
 DISK USED  *         1.20 GB      
 GA USED    *         0.00 MB       (max)       0.00 MB       (current)
 **********************************************************************************************************************************

1PROGRAM * RHF-SCF (CLOSED SHELL)       Authors: W. Meyer, H.-J. Werner


 NUMBER OF ELECTRONS:      16+   16-    SPACE SYMMETRY=1    SPIN SYMMETRY=Singlet 
 CONVERGENCE THRESHOLDS:    1.00E-05 (Density)    1.00E-07 (Energy)
 MAX. NUMBER OF ITERATIONS:       60
 INTERPOLATION TYPE:            DIIS
 INTERPOLATION STEPS:              2 (START)      1 (STEP)
 LEVEL SHIFTS:                  0.00 (CLOSED)  0.00 (OPEN) 



 Orbital guess generated from atomic densities. Full valence occupancy:   22

 Molecular orbital dump at record        2100.2

 ITERATION    DDIFF          GRAD             ENERGY        2-EL.EN.            DIPOLE MOMENTS         DIIS
    1      0.000D+00      0.000D+00      -263.66136736    342.537470    1.12568   -0.16409    0.31507    0
    2      0.000D+00      0.468D-02      -263.72656036    338.000629    0.64416   -0.09638    0.18684    1
    3      0.749D-02      0.317D-02      -263.76941489    340.547805    0.76509   -0.11270    0.21729    2
    4      0.307D-02      0.296D-03      -263.76990318    340.334097    0.76820   -0.11323    0.21856    3
    5      0.356D-03      0.858D-04      -263.76995958    340.338514    0.76308   -0.11253    0.21704    4
    6      0.132D-03      0.344D-04      -263.76996645    340.352210    0.76370   -0.11259    0.21727    5
    7      0.433D-04      0.849D-05      -263.76996715    340.344035    0.76327   -0.11255    0.21714    6
    8      0.141D-04      0.187D-05      -263.76996720    340.345316    0.76328   -0.11253    0.21714    7
    9      0.381D-05      0.653D-06      -263.76996720    340.345133    0.76325   -0.11255    0.21713    0

 Final occupancy:  16

 !RHF STATE 1.1 Energy               -263.769967201348
 Nuclear energy                        73.54886986
 One-electron energy                 -507.49140346
 Two-electron energy                  170.17256640
 Virial quotient                       -1.00173776
 !RHF STATE 1.1 Dipole moment           0.76325355    -0.11254527     0.21713395
 Dipole moment /Debye                   1.93986996    -0.28604280     0.55186331

 Orbital energies:

         1.1          2.1          3.1          4.1          5.1          6.1          7.1          8.1          9.1         10.1
    -20.652510   -20.652458   -20.567081   -11.460608    -1.531889    -1.478767    -1.352826    -0.800671    -0.743541    -0.718612

        11.1         12.1         13.1         14.1         15.1         16.1         17.1         18.1
     -0.715683    -0.715675    -0.583673    -0.544510    -0.544485    -0.510145     0.029454     0.047626


 **********************************************************************************************************************************
 DATASETS  * FILE   NREC   LENGTH (MB)   RECORD NAMES
              1      18        4.62       500      610      700      900      950      970     1000      129      960     1100   
                                          VAR    BASINP    GEOM    SYMINP    ZMAT    AOBASIS   BASIS     P2S    ABASIS      S 
                                         1400     1410     1200     1210     1080     1600     1650     1700   
                                           T        V       H0       H01     AOSYM     SMH    MOLCAS    OPER   

              2       3        1.44       700     1000     2100   
                                         GEOM     BASIS     RHF  

 PROGRAMS   *        TOTAL        HF       INT
 CPU TIMES  *        11.83      7.52      4.24
 REAL TIME  *        12.70 SEC
 DISK USED  *         1.24 GB      
 SF USED    *         0.21 MB      
 GA USED    *         0.00 MB       (max)       0.00 MB       (current)
 **********************************************************************************************************************************


1PROGRAM * CCSD (Closed-shell coupled cluster)     Authors: C. Hampel, H.-J. Werner, 1991, M. Deegan, P.J. Knowles, 1992

                                  CCSD-F12 implementation by  H.-J. Werner, 2007

                   Density fitting integral evaluation by F.R. Manby, 2003,2007, G. Knizia, 2010

 Basis set CC-PVTZ/JKFIT generated.      Number of basis functions:   376 
 Basis set AUG-CC-PVTZ/MP2FIT generated. Number of basis functions:   516 

 Convergence thresholds:  THRVAR = 1.00D-08  THRDEN = 1.00D-06

 CCSD(T)     terms to be evaluated (factor= 1.000)


 Number of core orbitals:           4 (   4 )
 Number of closed-shell orbitals:  12 (  12 )
 Number of external orbitals:     214 ( 214 )

 Molecular orbitals read from record     2100.2  Type=RHF/CANONICAL (state 1.1)

 MP2-F12 correlation treatment (H.-J. Werner, 2006)
 --------------------------------------------------

 Using MP2-F12 with ansatz 3C(FIX)

 Using projected zeroth-order Hamiltonian (+Z)

 FOCKRIB=T FOCKRIC=T FOCKRIP=T CABSP=T CABSA=T CABSK=T CABSF=T GBC=F EBC=F DMAT=T NOFIK=T NOPAO=1 SOLVE=-1  USEPAO=0
 EXCH_A= T EXCH_B= F EXCH_C= F EXCH_P= F
 
 Geminal basis:    OPTFULL  GEM_TYPE=SLATER  BETA=1.0  NGEM=6

 Optimizing Gaussian exponents for each gem_beta

 Geminal optimization for beta= 1.0000
 Weight function:   m=0, omega= 1.4646

 Augmented Hessian optimization of geminal fit. Trust ratio= 0.40000
 Convergence reached after   2 iterations. Final gradient= 8.24D-16, Step= 4.32D-06, Delta= 1.28D-09
 
 Alpha:                 0.19532     0.81920     2.85917     9.50073    35.69989   197.79328
 Coeff:                 0.27070     0.30552     0.18297     0.10986     0.06810     0.04224
 

 All pairs explicitly correlated. Number of r12-pairs:           78
 
 AO(A)-basis ORBITAL           loaded. Number of functions:     230
 RI(R)-basis CC-PVTZ/JKFIT     loaded. Number of functions:     376
 DF-basis CC-PVTZ/JKFIT        loaded. Number of functions:     376

 Screening thresholds:   THRAO=  1.00D-10  THRMO=  1.00D-09  THRPROD=  1.00D-09
                         THRSW=  1.00D-05  THROV=  1.00D-12  THRF12=   1.00D-08

 CPU time for Fock operators                      0.94 sec
 
 Construction of ABS:
 Smallest eigenvalue of S          2.57E-04  (threshold= 1.00E-08)
 Ratio eigmin/eigmax               1.83E-06  (threshold= 1.00E-09)
 Smallest eigenvalue of S kept     2.57E-04  (threshold= 2.57E-04, 0 functions deleted, 376 kept)
 
 Construction of CABS:
 Smallest eigenvalue of S          2.29E-08  (threshold= 1.00E-08)
 Ratio eigmin/eigmax               2.29E-08  (threshold= 1.00E-09)
 Smallest eigenvalue of S kept     2.29E-08  (threshold= 2.29E-08, 0 functions deleted, 376 kept)
 
 CPU time for CABS singles                        0.17 sec

 CABS-singles contribution of  -0.01596093 patched into reference energy.
 New reference energy        -263.78592813
 
 AO(A)-basis ORBITAL           loaded. Number of functions:     230
 RI(R)-basis CC-PVTZ/JKFIT     loaded. Number of functions:     376
 DF-basis AUG-CC-PVTZ/MP2FIT   loaded. Number of functions:     516

 Screening thresholds:   THRAO=  1.00D-10  THRMO=  1.00D-09  THRPROD=  1.00D-09
                         THRSW=  1.00D-05  THROV=  1.00D-12  THRF12=   1.00D-08

 CPU time for 3-index integral evaluation         1.58 sec
 CPU time for first  half transformation          0.06 sec (13070.3 MFLOP/sec)
 CPU time for second half transformation          0.03 sec ( 2053.3 MFLOP/sec)
 CPU time for sorting                             0.09 sec
 CPU time for fitting                             0.05 sec (27861.0 MFLOP/sec)
 CPU time for tilde quantities                    0.06 sec (30814.7 MFLOP/sec)
 CPU time for assembly                            0.86 sec (28044.6 MFLOP/sec)
 CPU time for tranop_f12                          0.93 sec (32201.8 MFLOP/sec)
 CPU time for f12 integrals (total)               5.83 sec
 F12-matrices built in  3 passes.
 F12-matrices built in  3 passes.
 F12-matrices built in  3 passes.
 F12-matrices built in  3 passes.
 FC-matrix built in  3 passes.
 CPU time for f12 matrices (total)                0.56 sec

 Diagonal F12 approximation with fixed coefficients:  TSING= 0.500,  TTRIP= 0.250 (scaled by -1/beta)

 DF-MP2-F12 energy corrections:
 ------------------------------
 Approx.                                    Singlet             Triplet             Total
 DF-MP2-F12/3*C(DX,FIX)                -0.097505201614     -0.016950858761     -0.114456060375
 DF-MP2-F12/3*C(FIX)                   -0.079905320883     -0.013407890632     -0.093313211515
 DF-MP2-F12/3C(FIX)                    -0.080263699124     -0.013430833383     -0.093694532508

 DF-MP2-F12 correlation energies:
 --------------------------------
 Approx.                                    Singlet             Triplet             Ecorr            Total Energy
 DF-MP2                                -0.537336740634     -0.342772347684     -0.880109088318   -264.666037214839
 DF-MP2-F12/3*C(DX,FIX)                -0.634841942249     -0.359723206445     -0.994565148694   -264.780493275214
 DF-MP2-F12/3*C(FIX)                   -0.617242061518     -0.356180238316     -0.973422299833   -264.759350426354
 DF-MP2-F12/3C(FIX)                    -0.617600439759     -0.356203181067     -0.973803620826   -264.759731747346

 SCS-DF-MP2 energies (F_SING= 1.20000  F_TRIP= 0.62222  F_PARALLEL= 0.33333):
 ----------------------------------------------------------------------------
 SCS-DF-MP2                            -0.858084660653   -264.644012787174
 SCS-DF-MP2-F12/3*C(DX,FIX)            -0.985638103597   -264.771566230118
 SCS-DF-MP2-F12/3*C(FIX)               -0.962313733218   -264.748241859738
 SCS-DF-MP2-F12/3C(FIX)                -0.962758062597   -264.748686189117
 Symmetry transformation completed.

 Number of N-1 electron functions:              12
 Number of N-2 electron functions:              78
 Number of singly external CSFs:              2568
 Number of doubly external CSFs:           3298596
 Total number of CSFs:                     3301165

 Pair and operator lists are different

 Length of J-op  integral file:             474.22 MB
 Length of K-op  integral file:             572.29 MB
 Length of 3-ext integral record:             0.00 MB

 For full I/O caching in triples, increase memory by 50.81 Mwords to 151.09 Mwords.

 Integral transformation finished. Total CPU:  12.88 sec, npass=  1  Memory used:  87.46 MW

 Reference energy:                   -263.78592813

 Adding F12 terms to K(Cij), methodcc=6,  factor=1.0

 ITER.      SQ.NORM     CORR.ENERGY   TOTAL ENERGY   ENERGY CHANGE        DEN1      VAR(S)    VAR(P)  DIIS     TIME
   1      1.20175981    -0.86219692  -264.64812505     0.01792858     0.04638057  0.71D-02  0.55D-02  1  1    28.06
   2      1.21598441    -0.85801298  -264.64394111     0.00418394    -0.02004537  0.85D-04  0.58D-03  2  2    35.46
   3      1.22129505    -0.85810711  -264.64403524    -0.00009413    -0.00235186  0.13D-03  0.32D-04  3  3    43.26
   4      1.22406531    -0.85798204  -264.64391017     0.00012507    -0.00140053  0.74D-05  0.40D-05  4  4    50.84
   5      1.22507880    -0.85794505  -264.64387317     0.00003699    -0.00036149  0.54D-06  0.28D-06  5  5    58.58
   6      1.22523830    -0.85791860  -264.64384673     0.00002645    -0.00000787  0.39D-07  0.23D-07  6  6    65.99
   7      1.22526711    -0.85791622  -264.64384435     0.00000238    -0.00000613  0.25D-08  0.39D-08  6  4    73.41
   8      1.22526739    -0.85791574  -264.64384387     0.00000048     0.00000192  0.38D-09  0.26D-09  6  1    80.78
   9      1.22526800    -0.85791581  -264.64384393    -0.00000007     0.00000055  0.25D-10  0.21D-10  6  2    87.84

 Norm of t1 vector:      0.10538111      S-energy:    -0.00000002      T1 diagnostic:  0.01521045
                                                                       D1 diagnostic:  0.04464237

 Adding energy correction from Wij-K(Fij), methodcc=6  factor=1.0
 
  CCSD correlation energy              -0.857915807158
  MP2-F12 correction (uncoupled)       -0.092542873963
  C*T doubles correction               -0.001473677777
  f12b correction                       0.015403110006


 Total CPU time for triples:    260.29 sec


 RESULTS
 =======

  Reference energy                   -263.769967201348
  F12 singles correction               -0.015960925173

 F12 singles corrections added to reference energy

  New reference energy               -263.785928126520

  F12a singlet correction              -0.080466401851
  F12a triplet correction              -0.013550149889
  F12a total correction                -0.094016551740

 F12a corrections for ansatz F12/3C(FIX) added to CCSD energy
 
  CCSD-F12a singlet pair energy        -0.641547368845
  CCSD-F12a triplet pair energy        -0.310384969069
  CCSD-F12a correlation energy         -0.951932358898

  Triples (T) contribution             -0.037509297771
  Total correlation energy             -0.989441656669

  CCSD-F12a total energy             -264.737860485419
  CCSD[T]-F12a energy                -264.777886573064
  CCSD-T-F12a energy                 -264.774440063591
 !CCSD(T)-F12a total energy          -264.775369783190

 F12b corrections for ansatz F12/3C(FIX) added to CCSD(T)-F12a energy

  CCSD-F12b singlet pair energy        -0.627368152063
  CCSD-F12b triplet pair energy        -0.309161075844
  CCSD-F12b correlation energy         -0.936529248892

  Triples (T) contribution             -0.037509297771
  Total correlation energy             -0.974038546663

  CCSD-F12b total energy             -264.722457375413
  CCSD[T]-F12b energy                -264.762483463058
  CCSD-T-F12b energy                 -264.759036953585
 !CCSD(T)-F12b total energy          -264.759966673184

 Timing summary (sec):

 STEP                 CPU(USER)    SYS     CPU(TOT)    WALL
 Transformation         13.00      1.12     14.12     14.35
 CCSD iterations        66.73      2.91     69.64     69.97
 Triples               260.29      3.11    263.40    263.30
 MP2-F12                 8.12      1.23      9.35      9.34
 F12b energy             4.01      0.04      4.05      4.04

 Program statistics:

 Available memory in ccsd:                99998934
 Min. memory needed in ccsd:               8644845
 Max. memory used in ccsd:                11598633
 Max. memory used in cckext:               8768967 (10 integral passes)



 **********************************************************************************************************************************
 DATASETS  * FILE   NREC   LENGTH (MB)   RECORD NAMES
              1      20      527.84       500      610      700      900      950      970     1000      129      960     1100   
                                          VAR    BASINP    GEOM    SYMINP    ZMAT    AOBASIS   BASIS     P2S    ABASIS      S 
                                         1400     1410     1200     1210     1080     1600     1650     1700      960(1)  1380   
                                           T        V       H0       H01     AOSYM     SMH    MOLCAS    OPER    ABASIS    JKOP   

              2       5        2.50       700     1000     2100     7360     7350   
                                         GEOM     BASIS     RHF    F12ABS    EF12   

 PROGRAMS   *        TOTAL   CCSD(T)        HF       INT
 CPU TIMES  *       364.21    352.37      7.52      4.24
 REAL TIME  *       374.10 SEC
 DISK USED  *         2.10 GB      
 SF USED    *         1.91 GB      
 GA USED    *         2.40 MB       (max)       0.00 MB       (current)
 **********************************************************************************************************************************

     CCSD(T)-F12        HF-SCF  
   -264.75996667   -263.76996720
 **********************************************************************************************************************************
 Variable memory released
