
 Primary working directories    : /scratch/kee
 Secondary working directories  : /scratch/kee
 Wavefunction directory         : /home/kee/wfu/
 Main file repository           : /scratch/kee/

 ARCHNAME  : Linux/x86_64
 FC        : /opt/intel/composer_xe_2015.0.090/bin/intel64/ifort
 FCVERSION : 15.0.0
 BLASLIB   : -L/opt/intel/mkl/lib/intel64 -lmkl_intel_ilp64 -lmkl_sequential -lmkl_core
 id        : emory

 Nodes     nprocs
 node16       3
 Number of processes for MPI-2 version of Molpro:   nprocs(total)=    4   nprocs(compute)=    3   nprocs(helper)=    1
 ga_uses_ma=false, calling ma_init with nominal heap.
 GA-space will be limited to   8.0 MW (determined by -G option)

 Using customized tuning parameters: mindgm=7; mindgv=32; mindgc=1; mindgr=1; noblas=0; mincuda=1000; minvec=7
 default implementation of scratch files=sf  

 ***,co2h2o
 memory,100,m
 basis avtz
 geomtype = xyz
 geometry = {
 6
       0.00000000
 O     0.00032100    1.15989800    0.00000000
 O     0.00041400   -1.15989400    0.00000000
 O    15.39038260   11.29482036    4.05144874
 H    16.18193712   11.60377601    3.60910010
 H    15.70436842   10.81619261    4.81957097
 C     0.01953800    0.00000300    0.00000000
 }
 hf
 ccsd(t)-f12
 ---

 Variables initialized (665), CPU time= 0.01 sec
 Commands  initialized (462), CPU time= 0.00 sec, 486 directives.
 Default parameters read. Elapsed time= 0.04 sec

 Checking input...
 Passed
1


                                         ***  PROGRAM SYSTEM MOLPRO  ***
                         Copyright, University College Cardiff Consultants Limited, 2008

                                    Version 2010.1 linked 9 Dec 2014 15:06:28 


 **********************************************************************************************************************************
 LABEL *   co2h2o                                                                        
 Linux-2.6.32-504.el6.x86_64/node16(x86_64) 64 bit mpp version                           DATE: 15-Dec-16          TIME: 01:09:12  
 **********************************************************************************************************************************

 Patch level:      19
 **********************************************************************************************************************************

 Variable memory set to  100000000 words,  buffer space   230000 words

 SETTING BASIS          =    AVTZ
 SETTING GEOMTYPE       =    XYZ

Geometry recognized as XYZ



 Recomputing integrals since basis changed


 Using spherical harmonics

 Library entry O      S aug-cc-pVTZ          selected for orbital group  1
 Library entry O      P aug-cc-pVTZ          selected for orbital group  1
 Library entry O      D aug-cc-pVTZ          selected for orbital group  1
 Library entry O      F aug-cc-pVTZ          selected for orbital group  1
 Library entry H      S aug-cc-pVTZ          selected for orbital group  2
 Library entry H      P aug-cc-pVTZ          selected for orbital group  2
 Library entry H      D aug-cc-pVTZ          selected for orbital group  2
 Library entry C      S aug-cc-pVTZ          selected for orbital group  3
 Library entry C      P aug-cc-pVTZ          selected for orbital group  3
 Library entry C      D aug-cc-pVTZ          selected for orbital group  3
 Library entry C      F aug-cc-pVTZ          selected for orbital group  3

1PROGRAM * SEWARD (Integral evaluation for generally contracted gaussian basis sets)     Author: Roland Lindh, 1990

 Geometry written to block  1 of record 700


 Point group  C1  



 ATOMIC COORDINATES

 NR  ATOM    CHARGE       X              Y              Z

   1  O       8.00    0.000606602    2.191889560    0.000000000
   2  O       8.00    0.000782347   -2.191882001    0.000000000
   3  O       8.00   29.083608172   21.344117184    7.656128554
   4  H       1.00   30.579429433   21.927958749    6.820210770
   5  H       1.00   29.676955381   20.439641818    9.107669204
   6  C       6.00    0.036921469    0.000005669    0.000000000

 Bond lengths in Bohr (Angstrom)

 1-6  2.192184701  2-6  2.192185575  3-4  1.810279194  3-5  1.810278116
     (1.160054182)     (1.160054644)     (0.957958491)     (0.957957921)

 Bond angles

  1-6-2  178.10622893   4-3-5  105.10354878

 NUCLEAR CHARGE:                   32
 NUMBER OF PRIMITIVE AOS:         322
 NUMBER OF SYMMETRY AOS:          282
 NUMBER OF CONTRACTIONS:          230   ( 230A   )
 NUMBER OF CORE ORBITALS:           4   (   4A   )
 NUMBER OF VALENCE ORBITALS:       18   (  18A   )


 NUCLEAR REPULSION ENERGY   73.51840075


 Eigenvalues of metric

         1 0.348E-03 0.384E-03 0.392E-03 0.419E-03 0.896E-03 0.914E-03 0.167E-02 0.174E-02


 Contracted 2-electron integrals neglected if value below      1.0D-11
 AO integral compression algorithm  1   Integral accuracy      1.0D-11

     327.156 MB (compressed) written to integral file ( 33.5%)

     Node minimum: 96.207 MB, node maximum: 119.800 MB


 NUMBER OF SORTED TWO-ELECTRON INTEGRALS:  117629820.     BUFFER LENGTH:  32768
 NUMBER OF SEGMENTS:   8  SEGMENT LENGTH:   15997437      RECORD LENGTH: 524288

 Memory used in sort:      16.55 MW

 SORT1 READ   121955845. AND WROTE    23569098. INTEGRALS IN     73 RECORDS. CPU TIME:     1.56 SEC, REAL TIME:     1.83 SEC
 SORT2 READ    70222001. AND WROTE   352862895. INTEGRALS IN   1272 RECORDS. CPU TIME:     0.85 SEC, REAL TIME:     1.07 SEC

 Node minimum:   117612110.  Node maximum:   117629820. integrals

 OPERATOR DM      FOR CENTER  0  COORDINATES:    0.000000    0.000000    0.000000


 **********************************************************************************************************************************
 DATASETS  * FILE   NREC   LENGTH (MB)   RECORD NAMES
              1      18        4.62       500      610      700      900      950      970     1000      129      960     1100   
                                          VAR    BASINP    GEOM    SYMINP    ZMAT    AOBASIS   BASIS     P2S    ABASIS      S 
                                         1400     1410     1200     1210     1080     1600     1650     1700   
                                           T        V       H0       H01     AOSYM     SMH    MOLCAS    OPER   

 PROGRAMS   *        TOTAL       INT
 CPU TIMES  *         4.46      4.39
 REAL TIME  *         5.08 SEC
 DISK USED  *         1.20 GB      
 GA USED    *         0.00 MB       (max)       0.00 MB       (current)
 **********************************************************************************************************************************

1PROGRAM * RHF-SCF (CLOSED SHELL)       Authors: W. Meyer, H.-J. Werner


 NUMBER OF ELECTRONS:      16+   16-    SPACE SYMMETRY=1    SPIN SYMMETRY=Singlet 
 CONVERGENCE THRESHOLDS:    1.00E-05 (Density)    1.00E-07 (Energy)
 MAX. NUMBER OF ITERATIONS:       60
 INTERPOLATION TYPE:            DIIS
 INTERPOLATION STEPS:              2 (START)      1 (STEP)
 LEVEL SHIFTS:                  0.00 (CLOSED)  0.00 (OPEN) 



 Orbital guess generated from atomic densities. Full valence occupancy:   22

 Molecular orbital dump at record        2100.2

 ITERATION    DDIFF          GRAD             ENERGY        2-EL.EN.            DIPOLE MOMENTS         DIIS
    1      0.000D+00      0.000D+00      -263.66136742    342.476261    1.12568   -0.16409    0.31507    0
    2      0.000D+00      0.468D-02      -263.72656041    337.939525    0.64415   -0.09640    0.18684    1
    3      0.749D-02      0.317D-02      -263.76941492    340.486677    0.76509   -0.11270    0.21729    2
    4      0.307D-02      0.296D-03      -263.76990321    340.272968    0.76820   -0.11324    0.21856    3
    5      0.356D-03      0.858D-04      -263.76995960    340.277386    0.76308   -0.11253    0.21704    4
    6      0.132D-03      0.344D-04      -263.76996647    340.291082    0.76369   -0.11260    0.21727    5
    7      0.433D-04      0.849D-05      -263.76996718    340.282907    0.76327   -0.11256    0.21714    6
    8      0.141D-04      0.187D-05      -263.76996722    340.284189    0.76328   -0.11254    0.21714    7
    9      0.381D-05      0.652D-06      -263.76996723    340.284005    0.76325   -0.11255    0.21713    0

 Final occupancy:  16

 !RHF STATE 1.1 Energy               -263.769967226273
 Nuclear energy                        73.51840075
 One-electron energy                 -507.43037047
 Two-electron energy                  170.14200249
 Virial quotient                       -1.00173776
 !RHF STATE 1.1 Dipole moment           0.76325129    -0.11255347     0.21713374
 Dipole moment /Debye                   1.93986423    -0.28606364     0.55186277

 Orbital energies:

         1.1          2.1          3.1          4.1          5.1          6.1          7.1          8.1          9.1         10.1
    -20.652514   -20.652463   -20.567081   -11.460613    -1.531893    -1.478772    -1.352825    -0.800676    -0.743546    -0.718612

        11.1         12.1         13.1         14.1         15.1         16.1         17.1         18.1
     -0.715688    -0.715679    -0.583673    -0.544514    -0.544490    -0.510145     0.029455     0.047626


 **********************************************************************************************************************************
 DATASETS  * FILE   NREC   LENGTH (MB)   RECORD NAMES
              1      18        4.62       500      610      700      900      950      970     1000      129      960     1100   
                                          VAR    BASINP    GEOM    SYMINP    ZMAT    AOBASIS   BASIS     P2S    ABASIS      S 
                                         1400     1410     1200     1210     1080     1600     1650     1700   
                                           T        V       H0       H01     AOSYM     SMH    MOLCAS    OPER   

              2       3        1.44       700     1000     2100   
                                         GEOM     BASIS     RHF  

 PROGRAMS   *        TOTAL        HF       INT
 CPU TIMES  *        11.25      6.79      4.39
 REAL TIME  *        12.05 SEC
 DISK USED  *         1.24 GB      
 SF USED    *         0.21 MB      
 GA USED    *         0.00 MB       (max)       0.00 MB       (current)
 **********************************************************************************************************************************


1PROGRAM * CCSD (Closed-shell coupled cluster)     Authors: C. Hampel, H.-J. Werner, 1991, M. Deegan, P.J. Knowles, 1992

                                  CCSD-F12 implementation by  H.-J. Werner, 2007

                   Density fitting integral evaluation by F.R. Manby, 2003,2007, G. Knizia, 2010

 Basis set CC-PVTZ/JKFIT generated.      Number of basis functions:   376 
 Basis set AUG-CC-PVTZ/MP2FIT generated. Number of basis functions:   516 

 Convergence thresholds:  THRVAR = 1.00D-08  THRDEN = 1.00D-06

 CCSD(T)     terms to be evaluated (factor= 1.000)


 Number of core orbitals:           4 (   4 )
 Number of closed-shell orbitals:  12 (  12 )
 Number of external orbitals:     214 ( 214 )

 Molecular orbitals read from record     2100.2  Type=RHF/CANONICAL (state 1.1)

 MP2-F12 correlation treatment (H.-J. Werner, 2006)
 --------------------------------------------------

 Using MP2-F12 with ansatz 3C(FIX)

 Using projected zeroth-order Hamiltonian (+Z)

 FOCKRIB=T FOCKRIC=T FOCKRIP=T CABSP=T CABSA=T CABSK=T CABSF=T GBC=F EBC=F DMAT=T NOFIK=T NOPAO=1 SOLVE=-1  USEPAO=0
 EXCH_A= T EXCH_B= F EXCH_C= F EXCH_P= F
 
 Geminal basis:    OPTFULL  GEM_TYPE=SLATER  BETA=1.0  NGEM=6

 Optimizing Gaussian exponents for each gem_beta

 Geminal optimization for beta= 1.0000
 Weight function:   m=0, omega= 1.4646

 Augmented Hessian optimization of geminal fit. Trust ratio= 0.40000
 Convergence reached after   2 iterations. Final gradient= 8.24D-16, Step= 4.32D-06, Delta= 1.28D-09
 
 Alpha:                 0.19532     0.81920     2.85917     9.50073    35.69989   197.79328
 Coeff:                 0.27070     0.30552     0.18297     0.10986     0.06810     0.04224
 

 All pairs explicitly correlated. Number of r12-pairs:           78
 
 AO(A)-basis ORBITAL           loaded. Number of functions:     230
 RI(R)-basis CC-PVTZ/JKFIT     loaded. Number of functions:     376
 DF-basis CC-PVTZ/JKFIT        loaded. Number of functions:     376

 Screening thresholds:   THRAO=  1.00D-10  THRMO=  1.00D-09  THRPROD=  1.00D-09
                         THRSW=  1.00D-05  THROV=  1.00D-12  THRF12=   1.00D-08

 CPU time for Fock operators                      0.88 sec
 
 Construction of ABS:
 Smallest eigenvalue of S          2.57E-04  (threshold= 1.00E-08)
 Ratio eigmin/eigmax               1.83E-06  (threshold= 1.00E-09)
 Smallest eigenvalue of S kept     2.57E-04  (threshold= 2.57E-04, 0 functions deleted, 376 kept)
 
 Construction of CABS:
 Smallest eigenvalue of S          2.29E-08  (threshold= 1.00E-08)
 Ratio eigmin/eigmax               2.29E-08  (threshold= 1.00E-09)
 Smallest eigenvalue of S kept     2.29E-08  (threshold= 2.29E-08, 0 functions deleted, 376 kept)
 
 CPU time for CABS singles                        0.17 sec

 CABS-singles contribution of  -0.01596092 patched into reference energy.
 New reference energy        -263.78592815
 
 AO(A)-basis ORBITAL           loaded. Number of functions:     230
 RI(R)-basis CC-PVTZ/JKFIT     loaded. Number of functions:     376
 DF-basis AUG-CC-PVTZ/MP2FIT   loaded. Number of functions:     516

 Screening thresholds:   THRAO=  1.00D-10  THRMO=  1.00D-09  THRPROD=  1.00D-09
                         THRSW=  1.00D-05  THROV=  1.00D-12  THRF12=   1.00D-08

 CPU time for 3-index integral evaluation         1.47 sec
 CPU time for first  half transformation          0.15 sec ( 5944.1 MFLOP/sec)
 CPU time for second half transformation          0.02 sec ( 2788.9 MFLOP/sec)
 CPU time for sorting                             0.06 sec
 CPU time for fitting                             0.05 sec (27861.0 MFLOP/sec)
 CPU time for tilde quantities                    0.08 sec (23111.0 MFLOP/sec)
 CPU time for assembly                            0.81 sec (29713.1 MFLOP/sec)
 CPU time for tranop_f12                          0.93 sec (32684.1 MFLOP/sec)
 CPU time for f12 integrals (total)               5.71 sec
 F12-matrices built in  3 passes.
 F12-matrices built in  3 passes.
 F12-matrices built in  3 passes.
 F12-matrices built in  3 passes.
 FC-matrix built in  3 passes.
 CPU time for f12 matrices (total)                0.52 sec

 Diagonal F12 approximation with fixed coefficients:  TSING= 0.500,  TTRIP= 0.250 (scaled by -1/beta)

 DF-MP2-F12 energy corrections:
 ------------------------------
 Approx.                                    Singlet             Triplet             Total
 DF-MP2-F12/3*C(DX,FIX)                -0.097505201682     -0.016950858755     -0.114456060437
 DF-MP2-F12/3*C(FIX)                   -0.079905323427     -0.013407891998     -0.093313215425
 DF-MP2-F12/3C(FIX)                    -0.080263701749     -0.013430834792     -0.093694536541

 DF-MP2-F12 correlation energies:
 --------------------------------
 Approx.                                    Singlet             Triplet             Ecorr            Total Energy
 DF-MP2                                -0.537336737431     -0.342772344128     -0.880109081559   -264.666037232702
 DF-MP2-F12/3*C(DX,FIX)                -0.634841939113     -0.359723202883     -0.994565141996   -264.780493293138
 DF-MP2-F12/3*C(FIX)                   -0.617242060858     -0.356180236126     -0.973422296984   -264.759350448126
 DF-MP2-F12/3C(FIX)                    -0.617600439180     -0.356203178920     -0.973803618100   -264.759731769243

 SCS-DF-MP2 energies (F_SING= 1.20000  F_TRIP= 0.62222  F_PARALLEL= 0.33333):
 ----------------------------------------------------------------------------
 SCS-DF-MP2                            -0.858084654597   -264.644012805739
 SCS-DF-MP2-F12/3*C(DX,FIX)            -0.985638097618   -264.771566248761
 SCS-DF-MP2-F12/3*C(FIX)               -0.962313731063   -264.748241882206
 SCS-DF-MP2-F12/3C(FIX)                -0.962758060566   -264.748686211709
 Symmetry transformation completed.

 Number of N-1 electron functions:              12
 Number of N-2 electron functions:              78
 Number of singly external CSFs:              2568
 Number of doubly external CSFs:           3298596
 Total number of CSFs:                     3301165

 Pair and operator lists are different

 Length of J-op  integral file:             474.22 MB
 Length of K-op  integral file:             572.29 MB
 Length of 3-ext integral record:             0.00 MB

 For full I/O caching in triples, increase memory by 50.81 Mwords to 151.09 Mwords.

 Integral transformation finished. Total CPU:  11.56 sec, npass=  1  Memory used:  87.46 MW

 Reference energy:                   -263.78592815

 Adding F12 terms to K(Cij), methodcc=6,  factor=1.0

 ITER.      SQ.NORM     CORR.ENERGY   TOTAL ENERGY   ENERGY CHANGE        DEN1      VAR(S)    VAR(P)  DIIS     TIME
   1      1.20175980    -0.86219692  -264.64812507     0.01792858     0.04638057  0.71D-02  0.55D-02  1  1    25.97
   2      1.21598440    -0.85801298  -264.64394113     0.00418394    -0.02004537  0.85D-04  0.58D-03  2  2    32.95
   3      1.22129505    -0.85810711  -264.64403526    -0.00009413    -0.00235186  0.13D-03  0.32D-04  3  3    39.58
   4      1.22406531    -0.85798204  -264.64391019     0.00012507    -0.00140053  0.74D-05  0.40D-05  4  4    46.14
   5      1.22507880    -0.85794504  -264.64387319     0.00003699    -0.00036149  0.54D-06  0.28D-06  5  5    52.45
   6      1.22523829    -0.85791859  -264.64384674     0.00002645    -0.00000787  0.39D-07  0.23D-07  6  6    58.76
   7      1.22526710    -0.85791622  -264.64384437     0.00000238    -0.00000613  0.25D-08  0.39D-08  6  4    65.10
   8      1.22526739    -0.85791574  -264.64384389     0.00000048     0.00000192  0.38D-09  0.26D-09  6  1    71.47
   9      1.22526800    -0.85791580  -264.64384395    -0.00000007     0.00000055  0.25D-10  0.21D-10  6  2    77.96

 Norm of t1 vector:      0.10538111      S-energy:    -0.00000002      T1 diagnostic:  0.01521045
                                                                       D1 diagnostic:  0.04464237

 Adding energy correction from Wij-K(Fij), methodcc=6  factor=1.0
 
  CCSD correlation energy              -0.857915802247
  MP2-F12 correction (uncoupled)       -0.092542877741
  C*T doubles correction               -0.001473677901
  f12b correction                       0.015403109992


 Total CPU time for triples:    212.26 sec


 RESULTS
 =======

  Reference energy                   -263.769967226273
  F12 singles correction               -0.015960924869

 F12 singles corrections added to reference energy

  New reference energy               -263.785928151142

  F12a singlet correction              -0.080466404396
  F12a triplet correction              -0.013550151247
  F12a total correction                -0.094016555643

 F12a corrections for ansatz F12/3C(FIX) added to CCSD energy
 
  CCSD-F12a singlet pair energy        -0.641547368703
  CCSD-F12a triplet pair energy        -0.310384968167
  CCSD-F12a correlation energy         -0.951932357890

  Triples (T) contribution             -0.037509296851
  Total correlation energy             -0.989441654740

  CCSD-F12a total energy             -264.737860509032
  CCSD[T]-F12a energy                -264.777886595620
  CCSD-T-F12a energy                 -264.774440086345
 !CCSD(T)-F12a total energy          -264.775369805883

 F12b corrections for ansatz F12/3C(FIX) added to CCSD(T)-F12a energy

  CCSD-F12b singlet pair energy        -0.627368151935
  CCSD-F12b triplet pair energy        -0.309161074943
  CCSD-F12b correlation energy         -0.936529247897

  Triples (T) contribution             -0.037509296851
  Total correlation energy             -0.974038544748

  CCSD-F12b total energy             -264.722457399040
  CCSD[T]-F12b energy                -264.762483485628
  CCSD-T-F12b energy                 -264.759036976353
 !CCSD(T)-F12b total energy          -264.759966695890

 Timing summary (sec):

 STEP                 CPU(USER)    SYS     CPU(TOT)    WALL
 Transformation         11.69      1.12     12.81     13.24
 CCSD iterations        58.42      4.10     62.52     62.55
 Triples               212.26      2.51    214.77    214.69
 MP2-F12                 7.86      1.23      9.09      9.09
 F12b energy             3.64      0.04      3.68      3.68

 Program statistics:

 Available memory in ccsd:                99998934
 Min. memory needed in ccsd:               8644845
 Max. memory used in ccsd:                11598633
 Max. memory used in cckext:               8768967 (10 integral passes)



 **********************************************************************************************************************************
 DATASETS  * FILE   NREC   LENGTH (MB)   RECORD NAMES
              1      20      527.84       500      610      700      900      950      970     1000      129      960     1100   
                                          VAR    BASINP    GEOM    SYMINP    ZMAT    AOBASIS   BASIS     P2S    ABASIS      S 
                                         1400     1410     1200     1210     1080     1600     1650     1700      960(1)  1380   
                                           T        V       H0       H01     AOSYM     SMH    MOLCAS    OPER    ABASIS    JKOP   

              2       5        2.50       700     1000     2100     7360     7350   
                                         GEOM     BASIS     RHF    F12ABS    EF12   

 PROGRAMS   *        TOTAL   CCSD(T)        HF       INT
 CPU TIMES  *       305.15    293.90      6.79      4.39
 REAL TIME  *       315.69 SEC
 DISK USED  *         2.10 GB      
 SF USED    *         1.91 GB      
 GA USED    *         2.40 MB       (max)       0.00 MB       (current)
 **********************************************************************************************************************************

     CCSD(T)-F12        HF-SCF  
   -264.75996670   -263.76996723
 **********************************************************************************************************************************
 Variable memory released
