
 Primary working directories    : /scratch/kee
 Secondary working directories  : /scratch/kee
 Wavefunction directory         : /home/kee/wfu/
 Main file repository           : /scratch/kee/

 ARCHNAME  : Linux/x86_64
 FC        : /opt/intel/composer_xe_2015.0.090/bin/intel64/ifort
 FCVERSION : 15.0.0
 BLASLIB   : -L/opt/intel/mkl/lib/intel64 -lmkl_intel_ilp64 -lmkl_sequential -lmkl_core
 id        : emory

 Nodes     nprocs
 node19       3
 Number of processes for MPI-2 version of Molpro:   nprocs(total)=    4   nprocs(compute)=    3   nprocs(helper)=    1
 ga_uses_ma=false, calling ma_init with nominal heap.
 GA-space will be limited to   8.0 MW (determined by -G option)

 Using customized tuning parameters: mindgm=7; mindgv=32; mindgc=1; mindgr=1; noblas=0; mincuda=1000; minvec=7
 default implementation of scratch files=sf  

 ***,co2h2o
 memory,100,m
 basis avtz
 geomtype = xyz
 geometry = {
 3
       0.00000000
 O     4.50363900    0.00000000    0.00000000
 H     3.92249900    0.76306800    0.00000000
 H     3.92249900   -0.76306800    0.00000000
 }
 hf
 ccsd(t)-f12
 ---

 Variables initialized (665), CPU time= 0.00 sec
 Commands  initialized (462), CPU time= 0.01 sec, 486 directives.
 Default parameters read. Elapsed time= 0.04 sec

 Checking input...
 Passed
1


                                         ***  PROGRAM SYSTEM MOLPRO  ***
                         Copyright, University College Cardiff Consultants Limited, 2008

                                    Version 2010.1 linked 9 Dec 2014 15:06:28 


 **********************************************************************************************************************************
 LABEL *   co2h2o                                                                        
 Linux-2.6.32-504.el6.x86_64/node19(x86_64) 64 bit mpp version                           DATE: 14-Dec-16          TIME: 23:59:01  
 **********************************************************************************************************************************

 Patch level:      19
 **********************************************************************************************************************************

 Variable memory set to  100000000 words,  buffer space   230000 words

 SETTING BASIS          =    AVTZ
 SETTING GEOMTYPE       =    XYZ

Geometry recognized as XYZ



 Recomputing integrals since basis changed


 Using spherical harmonics

 Library entry O      S aug-cc-pVTZ          selected for orbital group  1
 Library entry O      P aug-cc-pVTZ          selected for orbital group  1
 Library entry O      D aug-cc-pVTZ          selected for orbital group  1
 Library entry O      F aug-cc-pVTZ          selected for orbital group  1
 Library entry H      S aug-cc-pVTZ          selected for orbital group  2
 Library entry H      P aug-cc-pVTZ          selected for orbital group  2
 Library entry H      D aug-cc-pVTZ          selected for orbital group  2

1PROGRAM * SEWARD (Integral evaluation for generally contracted gaussian basis sets)     Author: Roland Lindh, 1990

 Geometry written to block  1 of record 700


 Point group  C2v 



 ATOMIC COORDINATES

 NR  ATOM    CHARGE       X              Y              Z

   1  O       8.00    8.510644305    0.000000000    0.000000000
   2  H       1.00    7.412448861    1.441989540    0.000000000
   3  H       1.00    7.412448861   -1.441989540    0.000000000

 Bond lengths in Bohr (Angstrom)

 1-2  1.812558155  1-3  1.812558155
     (0.959164466)     (0.959164466)

 Bond angles

  2-1-3  105.41539946

 NUCLEAR CHARGE:                   10
 NUMBER OF PRIMITIVE AOS:         121
 NUMBER OF SYMMETRY AOS:          108
 NUMBER OF CONTRACTIONS:           92   (  35A1  +  27B1  +  18B2  +  12A2  )
 NUMBER OF CORE ORBITALS:           1   (   1A1  +   0B1  +   0B2  +   0A2  )
 NUMBER OF VALENCE ORBITALS:        6   (   3A1  +   2B1  +   1B2  +   0A2  )


 NUCLEAR REPULSION ENERGY    9.17404613


 Eigenvalues of metric

         1 0.384E-03 0.186E-02 0.321E-02 0.555E-02 0.759E-02 0.170E-01 0.392E-01 0.621E-01
         2 0.393E-03 0.168E-02 0.514E-02 0.627E-02 0.101E-01 0.156E-01 0.393E-01 0.648E-01
         3 0.595E-02 0.365E-01 0.641E-01 0.127E+00 0.173E+00 0.227E+00 0.359E+00 0.386E+00
         4 0.124E-01 0.680E-01 0.111E+00 0.212E+00 0.283E+00 0.409E+00 0.644E+00 0.778E+00


 Contracted 2-electron integrals neglected if value below      1.0D-11
 AO integral compression algorithm  1   Integral accuracy      1.0D-11

     16.777 MB (compressed) written to integral file ( 57.0%)

     Node minimum: 5.243 MB, node maximum: 6.291 MB


 NUMBER OF SORTED TWO-ELECTRON INTEGRALS:     803070.     BUFFER LENGTH:  32768
 NUMBER OF SEGMENTS:   1  SEGMENT LENGTH:     803070      RECORD LENGTH: 524288

 Memory used in sort:       1.36 MW

 SORT1 READ     3672886. AND WROTE      743305. INTEGRALS IN      3 RECORDS. CPU TIME:     0.08 SEC, REAL TIME:     0.09 SEC
 SORT2 READ     2236328. AND WROTE     2407953. INTEGRALS IN     72 RECORDS. CPU TIME:     0.03 SEC, REAL TIME:     0.04 SEC

 Node minimum:      802232.  Node maximum:      803070. integrals

 OPERATOR DM      FOR CENTER  0  COORDINATES:    0.000000    0.000000    0.000000


 **********************************************************************************************************************************
 DATASETS  * FILE   NREC   LENGTH (MB)   RECORD NAMES
              1      18        2.69       500      610      700      900      950      970     1000      129      960     1100   
                                          VAR    BASINP    GEOM    SYMINP    ZMAT    AOBASIS   BASIS     P2S    ABASIS      S 
                                         1400     1410     1200     1210     1080     1600     1650     1700   
                                           T        V       H0       H01     AOSYM     SMH    MOLCAS    OPER   

 PROGRAMS   *        TOTAL       INT
 CPU TIMES  *         0.45      0.36
 REAL TIME  *         0.69 SEC
 DISK USED  *        48.88 MB      
 GA USED    *         0.00 MB       (max)       0.00 MB       (current)
 **********************************************************************************************************************************

1PROGRAM * RHF-SCF (CLOSED SHELL)       Authors: W. Meyer, H.-J. Werner


 NUMBER OF ELECTRONS:       5+    5-
 CONVERGENCE THRESHOLDS:    1.00E-05 (Density)    1.00E-07 (Energy)
 MAX. NUMBER OF ITERATIONS:       60
 INTERPOLATION TYPE:            DIIS
 INTERPOLATION STEPS:              2 (START)      1 (STEP)
 LEVEL SHIFTS:                  0.00 (CLOSED)  0.00 (OPEN) 



 Orbital guess generated from atomic densities. Full valence occupancy:    4   2   1   0

 Molecular orbital dump at record        2100.2

 Initial alpha occupancy:   3   1   1   0
 Initial beta  occupancy:   3   1   1   0
 Wave function symmetry:    1

 ITERATION    DDIFF          GRAD             ENERGY        2-EL.EN.            DIPOLE MOMENTS         DIIS
    1      0.000D+00      0.000D+00       -76.02283649     77.627789   -1.12484    0.00000    0.00000    0
    2      0.000D+00      0.121D-01       -76.04950177     74.060540   -0.66671    0.00000    0.00000    1
    3      0.206D-01      0.756D-02       -76.06031195     75.623215   -0.77971    0.00000    0.00000    2
    4      0.724D-02      0.701D-03       -76.06049310     75.534831   -0.77630    0.00000    0.00000    3
    5      0.941D-03      0.188D-03       -76.06051057     75.548230   -0.77504    0.00000    0.00000    4
    6      0.285D-03      0.352D-04       -76.06051156     75.547513   -0.77487    0.00000    0.00000    5
    7      0.677D-04      0.672D-05       -76.06051160     75.547629   -0.77478    0.00000    0.00000    6
    8      0.178D-04      0.131D-05       -76.06051160     75.547588   -0.77475    0.00000    0.00000    5
    9      0.305D-05      0.375D-06       -76.06051160     75.547626   -0.77475    0.00000    0.00000    0

 Final occupancy:   3   1   1   0

 !RHF STATE 1.1 Energy                -76.060511601435
 Nuclear energy                         9.17404613
 One-electron energy                 -123.00837074
 Two-electron energy                   37.77381301
 Virial quotient                       -1.00146174
 !RHF STATE 1.1 Dipole moment          -0.77474579     0.00000000     0.00000000
 Dipole moment /Debye                  -1.96907840     0.00000000     0.00000000

 Orbital energies:

         1.1          2.1          3.1          4.1          5.1
    -20.567133    -1.351962    -0.582815     0.029477     0.136083

         1.2          2.2          3.2
     -0.718526     0.047621     0.182759

         1.3          2.3          3.3
     -0.509937     0.158457     0.301469

         1.4          2.4
      0.264920     0.721581


 **********************************************************************************************************************************
 DATASETS  * FILE   NREC   LENGTH (MB)   RECORD NAMES
              1      18        2.69       500      610      700      900      950      970     1000      129      960     1100   
                                          VAR    BASINP    GEOM    SYMINP    ZMAT    AOBASIS   BASIS     P2S    ABASIS      S 
                                         1400     1410     1200     1210     1080     1600     1650     1700   
                                           T        V       H0       H01     AOSYM     SMH    MOLCAS    OPER   

              2       3        0.35       700     1000     2100   
                                         GEOM     BASIS     RHF  

 PROGRAMS   *        TOTAL        HF       INT
 CPU TIMES  *         0.50      0.05      0.36
 REAL TIME  *         0.75 SEC
 DISK USED  *        59.58 MB      
 SF USED    *         0.01 MB      
 GA USED    *         0.00 MB       (max)       0.00 MB       (current)
 **********************************************************************************************************************************


1PROGRAM * CCSD (Closed-shell coupled cluster)     Authors: C. Hampel, H.-J. Werner, 1991, M. Deegan, P.J. Knowles, 1992

                                  CCSD-F12 implementation by  H.-J. Werner, 2007

                   Density fitting integral evaluation by F.R. Manby, 2003,2007, G. Knizia, 2010

 Basis set CC-PVTZ/JKFIT generated.      Number of basis functions:   139 
 Basis set AUG-CC-PVTZ/MP2FIT generated. Number of basis functions:   198 

 Convergence thresholds:  THRVAR = 1.00D-08  THRDEN = 1.00D-06

 CCSD(T)     terms to be evaluated (factor= 1.000)


 Number of core orbitals:           1 (   1   0   0   0 )
 Number of closed-shell orbitals:   4 (   2   1   1   0 )
 Number of external orbitals:      87 (  32  26  17  12 )

 Molecular orbitals read from record     2100.2  Type=RHF/CANONICAL (state 1.1)

 MP2-F12 correlation treatment (H.-J. Werner, 2006)
 --------------------------------------------------

 Using MP2-F12 with ansatz 3C(FIX)

 Using projected zeroth-order Hamiltonian (+Z)

 FOCKRIB=T FOCKRIC=T FOCKRIP=T CABSP=T CABSA=T CABSK=T CABSF=T GBC=F EBC=F DMAT=T NOFIK=T NOPAO=1 SOLVE=-1  USEPAO=0
 EXCH_A= T EXCH_B= F EXCH_C= F EXCH_P= F
 
 Geminal basis:    OPTFULL  GEM_TYPE=SLATER  BETA=1.0  NGEM=6

 Optimizing Gaussian exponents for each gem_beta

 Geminal optimization for beta= 1.0000
 Weight function:   m=0, omega= 1.4646

 Augmented Hessian optimization of geminal fit. Trust ratio= 0.40000
 Convergence reached after   2 iterations. Final gradient= 8.24D-16, Step= 4.32D-06, Delta= 1.28D-09
 
 Alpha:                 0.19532     0.81920     2.85917     9.50073    35.69989   197.79328
 Coeff:                 0.27070     0.30552     0.18297     0.10986     0.06810     0.04224
 

 Symmetry turned off. Reference energy:        -76.060511601435

 All pairs explicitly correlated. Number of r12-pairs:           10
 
 AO(A)-basis ORBITAL           loaded. Number of functions:      92
 RI(R)-basis CC-PVTZ/JKFIT     loaded. Number of functions:     139
 DF-basis CC-PVTZ/JKFIT        loaded. Number of functions:     139

 Screening thresholds:   THRAO=  1.00D-10  THRMO=  1.00D-09  THRPROD=  1.00D-09
                         THRSW=  1.00D-05  THROV=  1.00D-12  THRF12=   1.00D-08

 CPU time for Fock operators                      0.07 sec
 
 Construction of ABS:
 Smallest eigenvalue of S          3.61E-04  (threshold= 1.00E-08)
 Ratio eigmin/eigmax               3.32E-06  (threshold= 1.00E-09)
 Smallest eigenvalue of S kept     3.61E-04  (threshold= 3.61E-04, 0 functions deleted, 139 kept)
 
 Construction of CABS:
 Smallest eigenvalue of S          4.95E-08  (threshold= 1.00E-08)
 Ratio eigmin/eigmax               4.95E-08  (threshold= 1.00E-09)
 Smallest eigenvalue of S kept     4.95E-08  (threshold= 4.95E-08, 0 functions deleted, 139 kept)
 
 CPU time for CABS singles                        0.01 sec

 CABS-singles contribution of  -0.00457310 patched into reference energy.
 New reference energy         -76.06508470
 
 AO(A)-basis ORBITAL           loaded. Number of functions:      92
 RI(R)-basis CC-PVTZ/JKFIT     loaded. Number of functions:     139
 DF-basis AUG-CC-PVTZ/MP2FIT   loaded. Number of functions:     198

 Screening thresholds:   THRAO=  1.00D-10  THRMO=  1.00D-09  THRPROD=  1.00D-09
                         THRSW=  1.00D-05  THROV=  1.00D-12  THRF12=   1.00D-08

 CPU time for 3-index integral evaluation         0.24 sec
 CPU time for first  half transformation          0.01 sec ( 5557.1 MFLOP/sec)
 CPU time for sorting                             0.01 sec
 CPU time for tranop_f12                          0.01 sec (18173.6 MFLOP/sec)
 CPU time for f12 integrals (total)               0.42 sec
 F12-matrices built in  3 passes.
 F12-matrices built in  3 passes.
 F12-matrices built in  3 passes.
 F12-matrices built in  3 passes.
 FC-matrix built in  3 passes.
 CPU time for f12 matrices (total)                0.01 sec

 Diagonal F12 approximation with fixed coefficients:  TSING= 0.500,  TTRIP= 0.250 (scaled by -1/beta)

 DF-MP2-F12 energy corrections:
 ------------------------------
 Approx.                                    Singlet             Triplet             Total
 DF-MP2-F12/3*C(DX,FIX)                -0.029757158206     -0.004892238571     -0.034649396776
 DF-MP2-F12/3*C(FIX)                   -0.024466679175     -0.003801699419     -0.028268378594
 DF-MP2-F12/3C(FIX)                    -0.024583437514     -0.003791064968     -0.028374502482

 DF-MP2-F12 correlation energies:
 --------------------------------
 Approx.                                    Singlet             Triplet             Ecorr            Total Energy
 DF-MP2                                -0.170654305015     -0.097759622003     -0.268413927018    -76.333498628867
 DF-MP2-F12/3*C(DX,FIX)                -0.200411463221     -0.102651860574     -0.303063323795    -76.368148025643
 DF-MP2-F12/3*C(FIX)                   -0.195120984190     -0.101561321422     -0.296682305613    -76.361767007461
 DF-MP2-F12/3C(FIX)                    -0.195237742529     -0.101550686971     -0.296788429500    -76.361873131348

 SCS-DF-MP2 energies (F_SING= 1.20000  F_TRIP= 0.62222  F_PARALLEL= 0.33333):
 ----------------------------------------------------------------------------
 SCS-DF-MP2                            -0.265613375265    -76.330698077113
 SCS-DF-MP2-F12/3*C(DX,FIX)            -0.304366024667    -76.369450726515
 SCS-DF-MP2-F12/3*C(FIX)               -0.297338892136    -76.362423593984
 SCS-DF-MP2-F12/3C(FIX)                -0.297472385150    -76.362557086998

 Symmetry restored.
 Symmetry transformation completed.

 Number of N-1 electron functions:               4
 Number of N-2 electron functions:              10
 Number of singly external CSFs:               107
 Number of doubly external CSFs:             15793
 Total number of CSFs:                       15901

 Pair and operator lists are different

 Length of J-op  integral file:               8.28 MB
 Length of K-op  integral file:              12.26 MB
 Length of 3-ext integral record:             0.00 MB

 Memory could be reduced to 1.46 Mwords without degradation in triples

 Integral transformation finished. Total CPU:   0.03 sec, npass=  1  Memory used:   0.25 MW

 Reference energy:                    -76.06508470

 Adding F12 terms to K(Cij), methodcc=6,  factor=1.0

 ITER.      SQ.NORM     CORR.ENERGY   TOTAL ENERGY   ENERGY CHANGE        DEN1      VAR(S)    VAR(P)  DIIS     TIME
   1      1.06111716    -0.26825000   -76.33333470     0.00018662     0.00590111  0.74D-03  0.97D-03  1  1     0.63
   2      1.06435072    -0.26790846   -76.33299317     0.00034153    -0.00445715  0.12D-04  0.10D-03  2  2     0.65
   3      1.06547973    -0.26801938   -76.33310408    -0.00011092    -0.00076706  0.86D-05  0.53D-05  3  3     0.67
   4      1.06593086    -0.26805461   -76.33313931    -0.00003523    -0.00025961  0.36D-06  0.55D-06  4  4     0.69
   5      1.06601380    -0.26805140   -76.33313610     0.00000322    -0.00002470  0.13D-06  0.35D-07  5  5     0.70
   6      1.06604184    -0.26804951   -76.33313421     0.00000188    -0.00000403  0.10D-07  0.23D-08  6  6     0.72
   7      1.06604796    -0.26804912   -76.33313382     0.00000040    -0.00000132  0.78D-09  0.33D-09  6  1     0.74
   8      1.06604907    -0.26804923   -76.33313394    -0.00000012     0.00000015  0.89D-10  0.28D-10  6  2     0.76

 Norm of t1 vector:      0.03583711      S-energy:    -0.00000010      T1 diagnostic:  0.00895928
                                                                       D1 diagnostic:  0.01776607

 Adding energy correction from Wij-K(Fij), methodcc=6  factor=1.0
 
  CCSD correlation energy              -0.268049234464
  MP2-F12 correction (uncoupled)       -0.028080083064
  C*T doubles correction               -0.000435184977
  f12b correction                       0.004753425676


 Total CPU time for triples:      0.04 sec


 RESULTS
 =======

  Reference energy                    -76.060511601435
  F12 singles correction               -0.004573100413

 F12 singles corrections added to reference energy

  New reference energy                -76.065084701848

  F12a singlet correction              -0.024665904448
  F12a triplet correction              -0.003849363592
  F12a total correction                -0.028515268041

 F12a corrections for ansatz F12/3C(FIX) added to CCSD energy
 
  CCSD-F12a singlet pair energy        -0.206112799949
  CCSD-F12a triplet pair energy        -0.090451597859
  CCSD-F12a correlation energy         -0.296564502505

  Triples (T) contribution             -0.008437422137
  Total correlation energy             -0.305001924642

  CCSD-F12a total energy              -76.361649204353
  CCSD[T]-F12a energy                 -76.370384814696
  CCSD-T-F12a energy                  -76.369965226907
 !CCSD(T)-F12a total energy           -76.370086626490

 F12b corrections for ansatz F12/3C(FIX) added to CCSD(T)-F12a energy

  CCSD-F12b singlet pair energy        -0.201721576816
  CCSD-F12b triplet pair energy        -0.090089395316
  CCSD-F12b correlation energy         -0.291811076829

  Triples (T) contribution             -0.008437422137
  Total correlation energy             -0.300248498966

  CCSD-F12b total energy              -76.356895778677
  CCSD[T]-F12b energy                 -76.365631389020
  CCSD-T-F12b energy                  -76.365211801231
 !CCSD(T)-F12b total energy           -76.365333200814

 Timing summary (sec):

 STEP                 CPU(USER)    SYS     CPU(TOT)    WALL
 Transformation          0.03      0.01      0.04      0.03
 CCSD iterations         0.20      0.00      0.20      0.20
 Triples                 0.04      0.01      0.05      0.05
 MP2-F12                 0.54      0.05      0.59      0.59
 F12b energy             0.01      0.00      0.01      0.01

 Program statistics:

 Available memory in ccsd:                99999786
 Min. memory needed in ccsd:                 80557
 Max. memory used in ccsd:                   91994
 Max. memory used in cckext:                125369 ( 9 integral passes)



 **********************************************************************************************************************************
 DATASETS  * FILE   NREC   LENGTH (MB)   RECORD NAMES
              1      20        5.81       500      610      700      900      950      970     1000      129      960     1100   
                                          VAR    BASINP    GEOM    SYMINP    ZMAT    AOBASIS   BASIS     P2S    ABASIS      S 
                                         1400     1410     1200     1210     1080     1600     1650     1700      960(1)  1380   
                                           T        V       H0       H01     AOSYM     SMH    MOLCAS    OPER    ABASIS    JKOP   

              2       5        0.40       700     1000     2100     7360     7350   
                                         GEOM     BASIS     RHF    F12ABS    EF12   

 PROGRAMS   *        TOTAL   CCSD(T)        HF       INT
 CPU TIMES  *         1.33      0.83      0.05      0.36
 REAL TIME  *         1.65 SEC
 DISK USED  *        64.48 MB      
 SF USED    *        38.05 MB      
 GA USED    *         2.40 MB       (max)       0.00 MB       (current)
 **********************************************************************************************************************************

     CCSD(T)-F12        HF-SCF  
    -76.36533320    -76.06051160
 **********************************************************************************************************************************
 Variable memory released
