
 Primary working directories    : /scratch/kee
 Secondary working directories  : /scratch/kee
 Wavefunction directory         : /home/kee/wfu/
 Main file repository           : /scratch/kee/

 ARCHNAME  : Linux/x86_64
 FC        : /opt/intel/composer_xe_2015.0.090/bin/intel64/ifort
 FCVERSION : 15.0.0
 BLASLIB   : -L/opt/intel/mkl/lib/intel64 -lmkl_intel_ilp64 -lmkl_sequential -lmkl_core
 id        : emory

 Nodes     nprocs
 node16       3
 Number of processes for MPI-2 version of Molpro:   nprocs(total)=    4   nprocs(compute)=    3   nprocs(helper)=    1
 ga_uses_ma=false, calling ma_init with nominal heap.
 GA-space will be limited to   8.0 MW (determined by -G option)

 Using customized tuning parameters: mindgm=7; mindgv=32; mindgc=1; mindgr=1; noblas=0; mincuda=1000; minvec=7
 default implementation of scratch files=sf  

 ***,co2h2o
 memory,100,m
 basis avtz
 geomtype = xyz
 geometry = {
 6
       0.00000000
 O     0.00032100    1.15989800    0.00000000
 O     0.00041400   -1.15989400    0.00000000
 O    15.07508323   11.06313180    3.96834210
 H    15.86663774   11.37208744    3.52599346
 H    15.38906904   10.58450405    4.73646433
 C     0.01953800    0.00000300    0.00000000
 }
 hf
 ccsd(t)-f12
 ---

 Variables initialized (665), CPU time= 0.01 sec
 Commands  initialized (462), CPU time= 0.00 sec, 486 directives.
 Default parameters read. Elapsed time= 0.03 sec

 Checking input...
 Passed
1


                                         ***  PROGRAM SYSTEM MOLPRO  ***
                         Copyright, University College Cardiff Consultants Limited, 2008

                                    Version 2010.1 linked 9 Dec 2014 15:06:28 


 **********************************************************************************************************************************
 LABEL *   co2h2o                                                                        
 Linux-2.6.32-504.el6.x86_64/node16(x86_64) 64 bit mpp version                           DATE: 15-Dec-16          TIME: 01:48:22  
 **********************************************************************************************************************************

 Patch level:      19
 **********************************************************************************************************************************

 Variable memory set to  100000000 words,  buffer space   230000 words

 SETTING BASIS          =    AVTZ
 SETTING GEOMTYPE       =    XYZ

Geometry recognized as XYZ



 Recomputing integrals since basis changed


 Using spherical harmonics

 Library entry O      S aug-cc-pVTZ          selected for orbital group  1
 Library entry O      P aug-cc-pVTZ          selected for orbital group  1
 Library entry O      D aug-cc-pVTZ          selected for orbital group  1
 Library entry O      F aug-cc-pVTZ          selected for orbital group  1
 Library entry H      S aug-cc-pVTZ          selected for orbital group  2
 Library entry H      P aug-cc-pVTZ          selected for orbital group  2
 Library entry H      D aug-cc-pVTZ          selected for orbital group  2
 Library entry C      S aug-cc-pVTZ          selected for orbital group  3
 Library entry C      P aug-cc-pVTZ          selected for orbital group  3
 Library entry C      D aug-cc-pVTZ          selected for orbital group  3
 Library entry C      F aug-cc-pVTZ          selected for orbital group  3

1PROGRAM * SEWARD (Integral evaluation for generally contracted gaussian basis sets)     Author: Roland Lindh, 1990

 Geometry written to block  1 of record 700


 Point group  C1  



 ATOMIC COORDINATES

 NR  ATOM    CHARGE       X              Y              Z

   1  O       8.00    0.000606602    2.191889560    0.000000000
   2  O       8.00    0.000782347   -2.191882001    0.000000000
   3  O       8.00   28.487778713   20.906289258    7.499079765
   4  H       1.00   29.983599955   21.490130804    6.663161981
   5  H       1.00   29.081125903   20.001813891    8.950620415
   6  C       6.00    0.036921469    0.000005669    0.000000000

 Bond lengths in Bohr (Angstrom)

 1-6  2.192184701  2-6  2.192185575  3-4  1.810279172  3-5  1.810278110
     (1.160054182)     (1.160054644)     (0.957958480)     (0.957957918)

 Bond angles

  1-6-2  178.10622893   4-3-5  105.10354942

 NUCLEAR CHARGE:                   32
 NUMBER OF PRIMITIVE AOS:         322
 NUMBER OF SYMMETRY AOS:          282
 NUMBER OF CONTRACTIONS:          230   ( 230A   )
 NUMBER OF CORE ORBITALS:           4   (   4A   )
 NUMBER OF VALENCE ORBITALS:       18   (  18A   )


 NUCLEAR REPULSION ENERGY   73.64218151


 Eigenvalues of metric

         1 0.348E-03 0.384E-03 0.392E-03 0.419E-03 0.896E-03 0.914E-03 0.167E-02 0.174E-02


 Contracted 2-electron integrals neglected if value below      1.0D-11
 AO integral compression algorithm  1   Integral accuracy      1.0D-11

     327.942 MB (compressed) written to integral file ( 33.4%)

     Node minimum: 84.935 MB, node maximum: 122.946 MB


 NUMBER OF SORTED TWO-ELECTRON INTEGRALS:  117629820.     BUFFER LENGTH:  32768
 NUMBER OF SEGMENTS:   8  SEGMENT LENGTH:   15997437      RECORD LENGTH: 524288

 Memory used in sort:      16.55 MW

 SORT1 READ   122636465. AND WROTE    23589797. INTEGRALS IN     73 RECORDS. CPU TIME:     1.52 SEC, REAL TIME:     1.80 SEC
 SORT2 READ    70283493. AND WROTE   352862895. INTEGRALS IN   1374 RECORDS. CPU TIME:     0.84 SEC, REAL TIME:     1.06 SEC

 Node minimum:   117612110.  Node maximum:   117629820. integrals

 OPERATOR DM      FOR CENTER  0  COORDINATES:    0.000000    0.000000    0.000000


 **********************************************************************************************************************************
 DATASETS  * FILE   NREC   LENGTH (MB)   RECORD NAMES
              1      18        4.62       500      610      700      900      950      970     1000      129      960     1100   
                                          VAR    BASINP    GEOM    SYMINP    ZMAT    AOBASIS   BASIS     P2S    ABASIS      S 
                                         1400     1410     1200     1210     1080     1600     1650     1700   
                                           T        V       H0       H01     AOSYM     SMH    MOLCAS    OPER   

 PROGRAMS   *        TOTAL       INT
 CPU TIMES  *         4.90      4.83
 REAL TIME  *         5.55 SEC
 DISK USED  *         1.20 GB      
 GA USED    *         0.00 MB       (max)       0.00 MB       (current)
 **********************************************************************************************************************************

1PROGRAM * RHF-SCF (CLOSED SHELL)       Authors: W. Meyer, H.-J. Werner


 NUMBER OF ELECTRONS:      16+   16-    SPACE SYMMETRY=1    SPIN SYMMETRY=Singlet 
 CONVERGENCE THRESHOLDS:    1.00E-05 (Density)    1.00E-07 (Energy)
 MAX. NUMBER OF ITERATIONS:       60
 INTERPOLATION TYPE:            DIIS
 INTERPOLATION STEPS:              2 (START)      1 (STEP)
 LEVEL SHIFTS:                  0.00 (CLOSED)  0.00 (OPEN) 



 Orbital guess generated from atomic densities. Full valence occupancy:   22

 Molecular orbital dump at record        2100.2

 ITERATION    DDIFF          GRAD             ENERGY        2-EL.EN.            DIPOLE MOMENTS         DIIS
    1      0.000D+00      0.000D+00      -263.66136717    342.724932    1.12568   -0.16409    0.31507    0
    2      0.000D+00      0.468D-02      -263.72656021    338.187763    0.64417   -0.09634    0.18684    1
    3      0.749D-02      0.317D-02      -263.76941481    340.735015    0.76510   -0.11267    0.21729    2
    4      0.307D-02      0.296D-03      -263.76990311    340.521310    0.76820   -0.11320    0.21856    3
    5      0.356D-03      0.858D-04      -263.76995950    340.525724    0.76309   -0.11250    0.21704    4
    6      0.132D-03      0.344D-04      -263.76996637    340.539421    0.76370   -0.11256    0.21727    5
    7      0.433D-04      0.849D-05      -263.76996707    340.531245    0.76328   -0.11252    0.21714    6
    8      0.141D-04      0.187D-05      -263.76996712    340.532527    0.76329   -0.11251    0.21714    7
    9      0.381D-05      0.653D-06      -263.76996712    340.532343    0.76326   -0.11252    0.21713    0

 Final occupancy:  16

 !RHF STATE 1.1 Energy               -263.769967122939
 Nuclear energy                        73.64218151
 One-electron energy                 -507.67832015
 Two-electron energy                  170.26617152
 Virial quotient                       -1.00173776
 !RHF STATE 1.1 Dipole moment           0.76326063    -0.11251961     0.21713460
 Dipole moment /Debye                   1.93988794    -0.28597758     0.55186495

 Orbital energies:

         1.1          2.1          3.1          4.1          5.1          6.1          7.1          8.1          9.1         10.1
    -20.652496   -20.652444   -20.567082   -11.460595    -1.531875    -1.478754    -1.352826    -0.800658    -0.743527    -0.718612

        11.1         12.1         13.1         14.1         15.1         16.1         17.1         18.1
     -0.715670    -0.715661    -0.583674    -0.544496    -0.544472    -0.510146     0.029454     0.047625


 **********************************************************************************************************************************
 DATASETS  * FILE   NREC   LENGTH (MB)   RECORD NAMES
              1      18        4.62       500      610      700      900      950      970     1000      129      960     1100   
                                          VAR    BASINP    GEOM    SYMINP    ZMAT    AOBASIS   BASIS     P2S    ABASIS      S 
                                         1400     1410     1200     1210     1080     1600     1650     1700   
                                           T        V       H0       H01     AOSYM     SMH    MOLCAS    OPER   

              2       3        1.44       700     1000     2100   
                                         GEOM     BASIS     RHF  

 PROGRAMS   *        TOTAL        HF       INT
 CPU TIMES  *        12.01      7.11      4.83
 REAL TIME  *        13.13 SEC
 DISK USED  *         1.24 GB      
 SF USED    *         0.21 MB      
 GA USED    *         0.00 MB       (max)       0.00 MB       (current)
 **********************************************************************************************************************************


1PROGRAM * CCSD (Closed-shell coupled cluster)     Authors: C. Hampel, H.-J. Werner, 1991, M. Deegan, P.J. Knowles, 1992

                                  CCSD-F12 implementation by  H.-J. Werner, 2007

                   Density fitting integral evaluation by F.R. Manby, 2003,2007, G. Knizia, 2010

 Basis set CC-PVTZ/JKFIT generated.      Number of basis functions:   376 
 Basis set AUG-CC-PVTZ/MP2FIT generated. Number of basis functions:   516 

 Convergence thresholds:  THRVAR = 1.00D-08  THRDEN = 1.00D-06

 CCSD(T)     terms to be evaluated (factor= 1.000)


 Number of core orbitals:           4 (   4 )
 Number of closed-shell orbitals:  12 (  12 )
 Number of external orbitals:     214 ( 214 )

 Molecular orbitals read from record     2100.2  Type=RHF/CANONICAL (state 1.1)

 MP2-F12 correlation treatment (H.-J. Werner, 2006)
 --------------------------------------------------

 Using MP2-F12 with ansatz 3C(FIX)

 Using projected zeroth-order Hamiltonian (+Z)

 FOCKRIB=T FOCKRIC=T FOCKRIP=T CABSP=T CABSA=T CABSK=T CABSF=T GBC=F EBC=F DMAT=T NOFIK=T NOPAO=1 SOLVE=-1  USEPAO=0
 EXCH_A= T EXCH_B= F EXCH_C= F EXCH_P= F
 
 Geminal basis:    OPTFULL  GEM_TYPE=SLATER  BETA=1.0  NGEM=6

 Optimizing Gaussian exponents for each gem_beta

 Geminal optimization for beta= 1.0000
 Weight function:   m=0, omega= 1.4646

 Augmented Hessian optimization of geminal fit. Trust ratio= 0.40000
 Convergence reached after   2 iterations. Final gradient= 8.24D-16, Step= 4.32D-06, Delta= 1.28D-09
 
 Alpha:                 0.19532     0.81920     2.85917     9.50073    35.69989   197.79328
 Coeff:                 0.27070     0.30552     0.18297     0.10986     0.06810     0.04224
 

 All pairs explicitly correlated. Number of r12-pairs:           78
 
 AO(A)-basis ORBITAL           loaded. Number of functions:     230
 RI(R)-basis CC-PVTZ/JKFIT     loaded. Number of functions:     376
 DF-basis CC-PVTZ/JKFIT        loaded. Number of functions:     376

 Screening thresholds:   THRAO=  1.00D-10  THRMO=  1.00D-09  THRPROD=  1.00D-09
                         THRSW=  1.00D-05  THROV=  1.00D-12  THRF12=   1.00D-08

 CPU time for Fock operators                      0.89 sec
 
 Construction of ABS:
 Smallest eigenvalue of S          2.57E-04  (threshold= 1.00E-08)
 Ratio eigmin/eigmax               1.83E-06  (threshold= 1.00E-09)
 Smallest eigenvalue of S kept     2.57E-04  (threshold= 2.57E-04, 0 functions deleted, 376 kept)
 
 Construction of CABS:
 Smallest eigenvalue of S          2.29E-08  (threshold= 1.00E-08)
 Ratio eigmin/eigmax               2.29E-08  (threshold= 1.00E-09)
 Smallest eigenvalue of S kept     2.29E-08  (threshold= 2.29E-08, 0 functions deleted, 376 kept)
 
 CPU time for CABS singles                        0.18 sec

 CABS-singles contribution of  -0.01596093 patched into reference energy.
 New reference energy        -263.78592805
 
 AO(A)-basis ORBITAL           loaded. Number of functions:     230
 RI(R)-basis CC-PVTZ/JKFIT     loaded. Number of functions:     376
 DF-basis AUG-CC-PVTZ/MP2FIT   loaded. Number of functions:     516

 Screening thresholds:   THRAO=  1.00D-10  THRMO=  1.00D-09  THRPROD=  1.00D-09
                         THRSW=  1.00D-05  THROV=  1.00D-12  THRF12=   1.00D-08

 CPU time for 3-index integral evaluation         1.47 sec
 CPU time for first  half transformation          0.12 sec ( 6802.1 MFLOP/sec)
 CPU time for second half transformation          0.03 sec ( 1796.2 MFLOP/sec)
 CPU time for sorting                             0.05 sec
 CPU time for fitting                             0.06 sec (23217.5 MFLOP/sec)
 CPU time for tilde quantities                    0.08 sec (23111.0 MFLOP/sec)
 CPU time for assembly                            0.84 sec (28823.1 MFLOP/sec)
 CPU time for tranop_f12                          0.95 sec (32165.2 MFLOP/sec)
 CPU time for f12 integrals (total)               5.75 sec
 F12-matrices built in  3 passes.
 F12-matrices built in  3 passes.
 F12-matrices built in  3 passes.
 F12-matrices built in  3 passes.
 FC-matrix built in  3 passes.
 CPU time for f12 matrices (total)                0.55 sec

 Diagonal F12 approximation with fixed coefficients:  TSING= 0.500,  TTRIP= 0.250 (scaled by -1/beta)

 DF-MP2-F12 energy corrections:
 ------------------------------
 Approx.                                    Singlet             Triplet             Total
 DF-MP2-F12/3*C(DX,FIX)                -0.097505201396     -0.016950858795     -0.114456060191
 DF-MP2-F12/3*C(FIX)                   -0.079905321612     -0.013407891301     -0.093313212912
 DF-MP2-F12/3C(FIX)                    -0.080263699979     -0.013430834086     -0.093694534065

 DF-MP2-F12 correlation energies:
 --------------------------------
 Approx.                                    Singlet             Triplet             Ecorr            Total Energy
 DF-MP2                                -0.537336750766     -0.342772358939     -0.880109109705   -264.666037158622
 DF-MP2-F12/3*C(DX,FIX)                -0.634841952162     -0.359723217734     -0.994565169896   -264.780493218812
 DF-MP2-F12/3*C(FIX)                   -0.617242072377     -0.356180250240     -0.973422322617   -264.759350371534
 DF-MP2-F12/3C(FIX)                    -0.617600450745     -0.356203193025     -0.973803643771   -264.759731692687

 SCS-DF-MP2 energies (F_SING= 1.20000  F_TRIP= 0.62222  F_PARALLEL= 0.33333):
 ----------------------------------------------------------------------------
 SCS-DF-MP2                            -0.858084679815   -264.644012728731
 SCS-DF-MP2-F12/3*C(DX,FIX)            -0.985638122518   -264.771566171434
 SCS-DF-MP2-F12/3*C(FIX)               -0.962313753669   -264.748241802585
 SCS-DF-MP2-F12/3C(FIX)                -0.962758083221   -264.748686132138
 Symmetry transformation completed.

 Number of N-1 electron functions:              12
 Number of N-2 electron functions:              78
 Number of singly external CSFs:              2568
 Number of doubly external CSFs:           3298596
 Total number of CSFs:                     3301165

 Pair and operator lists are different

 Length of J-op  integral file:             474.22 MB
 Length of K-op  integral file:             572.29 MB
 Length of 3-ext integral record:             0.00 MB

 For full I/O caching in triples, increase memory by 50.81 Mwords to 151.09 Mwords.

 Integral transformation finished. Total CPU:  12.02 sec, npass=  1  Memory used:  87.46 MW

 Reference energy:                   -263.78592805

 Adding F12 terms to K(Cij), methodcc=6,  factor=1.0

 ITER.      SQ.NORM     CORR.ENERGY   TOTAL ENERGY   ENERGY CHANGE        DEN1      VAR(S)    VAR(P)  DIIS     TIME
   1      1.20175982    -0.86219694  -264.64812499     0.01792858     0.04638058  0.71D-02  0.55D-02  1  1    26.42
   2      1.21598442    -0.85801300  -264.64394105     0.00418394    -0.02004537  0.85D-04  0.58D-03  2  2    32.98
   3      1.22129506    -0.85810713  -264.64403518    -0.00009413    -0.00235186  0.13D-03  0.32D-04  3  3    39.55
   4      1.22406532    -0.85798206  -264.64391011     0.00012507    -0.00140053  0.74D-05  0.40D-05  4  4    46.13
   5      1.22507881    -0.85794506  -264.64387311     0.00003699    -0.00036149  0.54D-06  0.28D-06  5  5    52.73
   6      1.22523831    -0.85791861  -264.64384666     0.00002645    -0.00000787  0.39D-07  0.23D-07  6  6    59.34
   7      1.22526712    -0.85791624  -264.64384429     0.00000238    -0.00000613  0.25D-08  0.39D-08  6  4    65.94
   8      1.22526740    -0.85791576  -264.64384381     0.00000048     0.00000192  0.38D-09  0.26D-09  6  1    72.57
   9      1.22526801    -0.85791582  -264.64384387    -0.00000007     0.00000055  0.25D-10  0.21D-10  6  2    79.24

 Norm of t1 vector:      0.10538111      S-energy:    -0.00000002      T1 diagnostic:  0.01521045
                                                                       D1 diagnostic:  0.04464237

 Adding energy correction from Wij-K(Fij), methodcc=6  factor=1.0
 
  CCSD correlation energy              -0.857915823222
  MP2-F12 correction (uncoupled)       -0.092542875411
  C*T doubles correction               -0.001473677871
  f12b correction                       0.015403110043


 Total CPU time for triples:    215.05 sec


 RESULTS
 =======

  Reference energy                   -263.769967122939
  F12 singles correction               -0.015960925977

 F12 singles corrections added to reference energy

  New reference energy               -263.785928048916

  F12a singlet correction              -0.080466402709
  F12a triplet correction              -0.013550150573
  F12a total correction                -0.094016553282

 F12a corrections for ansatz F12/3C(FIX) added to CCSD energy
 
  CCSD-F12a singlet pair energy        -0.641547378549
  CCSD-F12a triplet pair energy        -0.310384977082
  CCSD-F12a correlation energy         -0.951932376504

  Triples (T) contribution             -0.037509300672
  Total correlation energy             -0.989441677176

  CCSD-F12a total energy             -264.737860425420
  CCSD[T]-F12a energy                -264.777886516398
  CCSD-T-F12a energy                 -264.774440006301
 !CCSD(T)-F12a total energy          -264.775369726092

 F12b corrections for ansatz F12/3C(FIX) added to CCSD(T)-F12a energy

  CCSD-F12b singlet pair energy        -0.627368161736
  CCSD-F12b triplet pair energy        -0.309161083851
  CCSD-F12b correlation energy         -0.936529266460

  Triples (T) contribution             -0.037509300672
  Total correlation energy             -0.974038567133

  CCSD-F12b total energy             -264.722457315377
  CCSD[T]-F12b energy                -264.762483406355
  CCSD-T-F12b energy                 -264.759036896257
 !CCSD(T)-F12b total energy          -264.759966616049

 Timing summary (sec):

 STEP                 CPU(USER)    SYS     CPU(TOT)    WALL
 Transformation         12.14      1.06     13.20     13.22
 CCSD iterations        59.15      2.73     61.88     62.27
 Triples               215.05      2.43    217.48    217.38
 MP2-F12                 7.97      1.25      9.22      9.27
 F12b energy             3.78      0.03      3.81      3.81

 Program statistics:

 Available memory in ccsd:                99998934
 Min. memory needed in ccsd:               8644845
 Max. memory used in ccsd:                11598633
 Max. memory used in cckext:               8768967 (10 integral passes)



 **********************************************************************************************************************************
 DATASETS  * FILE   NREC   LENGTH (MB)   RECORD NAMES
              1      20      527.84       500      610      700      900      950      970     1000      129      960     1100   
                                          VAR    BASINP    GEOM    SYMINP    ZMAT    AOBASIS   BASIS     P2S    ABASIS      S 
                                         1400     1410     1200     1210     1080     1600     1650     1700      960(1)  1380   
                                           T        V       H0       H01     AOSYM     SMH    MOLCAS    OPER    ABASIS    JKOP   

              2       5        2.50       700     1000     2100     7360     7350   
                                         GEOM     BASIS     RHF    F12ABS    EF12   

 PROGRAMS   *        TOTAL   CCSD(T)        HF       INT
 CPU TIMES  *       310.30    298.29      7.11      4.83
 REAL TIME  *       319.44 SEC
 DISK USED  *         2.10 GB      
 SF USED    *         1.91 GB      
 GA USED    *         2.40 MB       (max)       0.00 MB       (current)
 **********************************************************************************************************************************

     CCSD(T)-F12        HF-SCF  
   -264.75996662   -263.76996712
 **********************************************************************************************************************************
 Variable memory released
