
 Primary working directories    : /scratch/kee
 Secondary working directories  : /scratch/kee
 Wavefunction directory         : /home/kee/wfu/
 Main file repository           : /scratch/kee/

 ARCHNAME  : Linux/x86_64
 FC        : /opt/intel/composer_xe_2015.0.090/bin/intel64/ifort
 FCVERSION : 15.0.0
 BLASLIB   : -L/opt/intel/mkl/lib/intel64 -lmkl_intel_ilp64 -lmkl_sequential -lmkl_core
 id        : emory

 Nodes     nprocs
 node24       3
 Number of processes for MPI-2 version of Molpro:   nprocs(total)=    4   nprocs(compute)=    3   nprocs(helper)=    1
 ga_uses_ma=false, calling ma_init with nominal heap.
 GA-space will be limited to   8.0 MW (determined by -G option)

 Using customized tuning parameters: mindgm=7; mindgv=32; mindgc=1; mindgr=1; noblas=0; mincuda=1000; minvec=7
 default implementation of scratch files=sf  

 ***,co2h2o
 memory,100,m
 basis avtz
 geomtype = xyz
 geometry = {
 6
    -264.76489694
 O     0.82869278    1.16169550    0.00000000
 O     0.82658011   -1.16233555    0.00000000
 O    -3.69123446    0.00146493    0.00000000
 H    -4.27486747    0.76205958    0.00000000
 H    -4.27459936   -0.75933699    0.00000000
 C     0.80876519   -0.00029961    0.00000000
 }
 hf
 ccsd(t)-f12
 ---

 Variables initialized (665), CPU time= 0.00 sec
 Commands  initialized (462), CPU time= 0.01 sec, 486 directives.
 Default parameters read. Elapsed time= 0.05 sec

 Checking input...
 Passed
1


                                         ***  PROGRAM SYSTEM MOLPRO  ***
                         Copyright, University College Cardiff Consultants Limited, 2008

                                    Version 2010.1 linked 9 Dec 2014 15:06:28 


 **********************************************************************************************************************************
 LABEL *   co2h2o                                                                        
 Linux-2.6.32-504.el6.x86_64/node24(x86_64) 64 bit mpp version                           DATE: 06-Dec-16          TIME: 23:56:20  
 **********************************************************************************************************************************

 Patch level:      19
 **********************************************************************************************************************************

 Variable memory set to  100000000 words,  buffer space   230000 words

 SETTING BASIS          =    AVTZ
 SETTING GEOMTYPE       =    XYZ

Geometry recognized as XYZ



 Recomputing integrals since basis changed


 Using spherical harmonics

 Library entry O      S aug-cc-pVTZ          selected for orbital group  1
 Library entry O      P aug-cc-pVTZ          selected for orbital group  1
 Library entry O      D aug-cc-pVTZ          selected for orbital group  1
 Library entry O      F aug-cc-pVTZ          selected for orbital group  1
 Library entry H      S aug-cc-pVTZ          selected for orbital group  2
 Library entry H      P aug-cc-pVTZ          selected for orbital group  2
 Library entry H      D aug-cc-pVTZ          selected for orbital group  2
 Library entry C      S aug-cc-pVTZ          selected for orbital group  3
 Library entry C      P aug-cc-pVTZ          selected for orbital group  3
 Library entry C      D aug-cc-pVTZ          selected for orbital group  3
 Library entry C      F aug-cc-pVTZ          selected for orbital group  3

1PROGRAM * SEWARD (Integral evaluation for generally contracted gaussian basis sets)     Author: Roland Lindh, 1990

 Geometry written to block  1 of record 700


 Point group  Cs  



 ATOMIC COORDINATES

 NR  ATOM    CHARGE       X              Y              Z

   1  O       8.00    1.566002401    2.195286343    0.000000000
   2  O       8.00    1.562010034   -2.196495862    0.000000000
   3  O       8.00   -6.975422216    0.002768317    0.000000000
   4  H       1.00   -8.078328766    1.440083902    0.000000000
   5  H       1.00   -8.077822112   -1.434938953    0.000000000
   6  C       6.00    1.528344714   -0.000566181    0.000000000

 Bond lengths in Bohr (Angstrom)

 1-6  2.196175405  2-6  2.196187724  3-4  1.811706088  3-5  1.811708509
     (1.162165971)     (1.162172490)     (0.958713571)     (0.958714852)

 Bond angles

  1-6-2  178.13918425   4-3-5  105.01947441

 NUCLEAR CHARGE:                   32
 NUMBER OF PRIMITIVE AOS:         322
 NUMBER OF SYMMETRY AOS:          282
 NUMBER OF CONTRACTIONS:          230   ( 152A'  +  78A"  )
 NUMBER OF CORE ORBITALS:           4   (   4A'  +   0A"  )
 NUMBER OF VALENCE ORBITALS:       18   (  14A'  +   4A"  )


 NUCLEAR REPULSION ENERGY   92.06823119


 Eigenvalues of metric

         1 0.342E-03 0.364E-03 0.371E-03 0.381E-03 0.897E-03 0.921E-03 0.160E-02 0.163E-02
         2 0.318E-02 0.348E-02 0.572E-02 0.124E-01 0.135E-01 0.281E-01 0.296E-01 0.312E-01


 Contracted 2-electron integrals neglected if value below      1.0D-11
 AO integral compression algorithm  1   Integral accuracy      1.0D-11

     518.783 MB (compressed) written to integral file ( 31.2%)

     Node minimum: 166.199 MB, node maximum: 179.831 MB


 NUMBER OF SORTED TWO-ELECTRON INTEGRALS:   59950380.     BUFFER LENGTH:  32768
 NUMBER OF SEGMENTS:   4  SEGMENT LENGTH:   15995235      RECORD LENGTH: 524288

 Memory used in sort:      16.55 MW

 SORT1 READ   207531521. AND WROTE    40731633. INTEGRALS IN    118 RECORDS. CPU TIME:     3.19 SEC, REAL TIME:     3.66 SEC
 SORT2 READ   122852388. AND WROTE   179836431. INTEGRALS IN   1902 RECORDS. CPU TIME:     1.07 SEC, REAL TIME:     1.53 SEC

 Node minimum:    59940574.  Node maximum:    59950380. integrals

 OPERATOR DM      FOR CENTER  0  COORDINATES:    0.000000    0.000000    0.000000


 **********************************************************************************************************************************
 DATASETS  * FILE   NREC   LENGTH (MB)   RECORD NAMES
              1      18        3.74       500      610      700      900      950      970     1000      129      960     1100   
                                          VAR    BASINP    GEOM    SYMINP    ZMAT    AOBASIS   BASIS     P2S    ABASIS      S 
                                         1400     1410     1200     1210     1080     1600     1650     1700   
                                           T        V       H0       H01     AOSYM     SMH    MOLCAS    OPER   

 PROGRAMS   *        TOTAL       INT
 CPU TIMES  *         8.78      8.68
 REAL TIME  *        10.24 SEC
 DISK USED  *         1.97 GB      
 GA USED    *         0.00 MB       (max)       0.00 MB       (current)
 **********************************************************************************************************************************

1PROGRAM * RHF-SCF (CLOSED SHELL)       Authors: W. Meyer, H.-J. Werner


 NUMBER OF ELECTRONS:      16+   16-
 CONVERGENCE THRESHOLDS:    1.00E-05 (Density)    1.00E-07 (Energy)
 MAX. NUMBER OF ITERATIONS:       60
 INTERPOLATION TYPE:            DIIS
 INTERPOLATION STEPS:              2 (START)      1 (STEP)
 LEVEL SHIFTS:                  0.00 (CLOSED)  0.00 (OPEN) 



 Orbital guess generated from atomic densities. Full valence occupancy:   18   4

 Molecular orbital dump at record        2100.2

 Initial alpha occupancy:  13   3
 Initial beta  occupancy:  13   3
 Wave function symmetry:    1

 ITERATION    DDIFF          GRAD             ENERGY        2-EL.EN.            DIPOLE MOMENTS         DIIS
    1      0.000D+00      0.000D+00      -263.66236881    380.047471   -1.18443   -0.00012    0.00000    0
    2      0.000D+00      0.627D-02      -263.72726699    375.360785   -0.72754   -0.00008    0.00000    1
    3      0.101D-01      0.424D-02      -263.76984090    377.927299   -0.83859   -0.00008    0.00000    2
    4      0.413D-02      0.402D-03      -263.77033594    377.720788   -0.84149   -0.00009    0.00000    3
    5      0.486D-03      0.117D-03      -263.77039399    377.719584   -0.83653   -0.00008    0.00000    4
    6      0.182D-03      0.475D-04      -263.77040124    377.734809   -0.83727   -0.00008    0.00000    5
    7      0.607D-04      0.115D-04      -263.77040197    377.726317   -0.83685   -0.00008    0.00000    6
    8      0.197D-04      0.254D-05      -263.77040202    377.727633   -0.83686   -0.00008    0.00000    7
    9      0.540D-05      0.850D-06      -263.77040202    377.727427   -0.83683   -0.00008    0.00000    0

 Final occupancy:  13   3

 !RHF STATE 1.1 Energy               -263.770402019644
 Nuclear energy                        92.06823119
 One-electron energy                 -544.70234652
 Two-electron energy                  188.86371331
 Virial quotient                       -1.00183947
 !RHF STATE 1.1 Dipole moment          -0.83683103    -0.00008155     0.00000000
 Dipole moment /Debye                  -2.12687302    -0.00020725     0.00000000

 Orbital energies:

         1.1          2.1          3.1          4.1          5.1          6.1          7.1          8.1          9.1         10.1
    -20.643877   -20.643832   -20.570500   -11.452915    -1.521538    -1.468495    -1.355759    -0.792092    -0.734421    -0.721232

        11.1         12.1         13.1         14.1         15.1
     -0.705366    -0.587435    -0.535336     0.027814     0.047315

         1.2          2.2          3.2          4.2          5.2
     -0.705704    -0.535473    -0.513484     0.080160     0.161796


 **********************************************************************************************************************************
 DATASETS  * FILE   NREC   LENGTH (MB)   RECORD NAMES
              1      18        3.76       500      610      700      900      950      970     1000      129      960     1100   
                                          VAR    BASINP    GEOM    SYMINP    ZMAT    AOBASIS   BASIS     P2S    ABASIS      S 
                                         1400     1410     1200     1210     1080     1600     1650     1700   
                                           T        V       H0       H01     AOSYM     SMH    MOLCAS    OPER   

              2       3        0.96       700     1000     2100   
                                         GEOM     BASIS     RHF  

 PROGRAMS   *        TOTAL        HF       INT
 CPU TIMES  *        13.47      4.69      8.68
 REAL TIME  *        15.19 SEC
 DISK USED  *         2.00 GB      
 SF USED    *         0.12 MB      
 GA USED    *         0.00 MB       (max)       0.00 MB       (current)
 **********************************************************************************************************************************


1PROGRAM * CCSD (Closed-shell coupled cluster)     Authors: C. Hampel, H.-J. Werner, 1991, M. Deegan, P.J. Knowles, 1992

                                  CCSD-F12 implementation by  H.-J. Werner, 2007

                   Density fitting integral evaluation by F.R. Manby, 2003,2007, G. Knizia, 2010

 Basis set CC-PVTZ/JKFIT generated.      Number of basis functions:   376 
 Basis set AUG-CC-PVTZ/MP2FIT generated. Number of basis functions:   516 

 Convergence thresholds:  THRVAR = 1.00D-08  THRDEN = 1.00D-06

 CCSD(T)     terms to be evaluated (factor= 1.000)


 Number of core orbitals:           4 (   4   0 )
 Number of closed-shell orbitals:  12 (   9   3 )
 Number of external orbitals:     214 ( 139  75 )

 Molecular orbitals read from record     2100.2  Type=RHF/CANONICAL (state 1.1)

 MP2-F12 correlation treatment (H.-J. Werner, 2006)
 --------------------------------------------------

 Using MP2-F12 with ansatz 3C(FIX)

 Using projected zeroth-order Hamiltonian (+Z)

 FOCKRIB=T FOCKRIC=T FOCKRIP=T CABSP=T CABSA=T CABSK=T CABSF=T GBC=F EBC=F DMAT=T NOFIK=T NOPAO=1 SOLVE=-1  USEPAO=0
 EXCH_A= T EXCH_B= F EXCH_C= F EXCH_P= F
 
 Geminal basis:    OPTFULL  GEM_TYPE=SLATER  BETA=1.0  NGEM=6

 Optimizing Gaussian exponents for each gem_beta

 Geminal optimization for beta= 1.0000
 Weight function:   m=0, omega= 1.4646

 Augmented Hessian optimization of geminal fit. Trust ratio= 0.40000
 Convergence reached after   2 iterations. Final gradient= 8.24D-16, Step= 4.32D-06, Delta= 1.28D-09
 
 Alpha:                 0.19532     0.81920     2.85917     9.50073    35.69989   197.79328
 Coeff:                 0.27070     0.30552     0.18297     0.10986     0.06810     0.04224
 

 Symmetry turned off. Reference energy:       -263.770402019643

 All pairs explicitly correlated. Number of r12-pairs:           78
 
 AO(A)-basis ORBITAL           loaded. Number of functions:     230
 RI(R)-basis CC-PVTZ/JKFIT     loaded. Number of functions:     376
 DF-basis CC-PVTZ/JKFIT        loaded. Number of functions:     376

 Screening thresholds:   THRAO=  1.00D-10  THRMO=  1.00D-09  THRPROD=  1.00D-09
                         THRSW=  1.00D-05  THROV=  1.00D-12  THRF12=   1.00D-08

 CPU time for Fock operators                      1.03 sec
 
 Construction of ABS:
 Smallest eigenvalue of S          2.57E-04  (threshold= 1.00E-08)
 Ratio eigmin/eigmax               1.83E-06  (threshold= 1.00E-09)
 Smallest eigenvalue of S kept     2.57E-04  (threshold= 2.57E-04, 0 functions deleted, 376 kept)
 
 Construction of CABS:
 Smallest eigenvalue of S          2.30E-08  (threshold= 1.00E-08)
 Ratio eigmin/eigmax               2.30E-08  (threshold= 1.00E-09)
 Smallest eigenvalue of S kept     2.30E-08  (threshold= 2.30E-08, 0 functions deleted, 376 kept)
 
 CPU time for CABS singles                        0.19 sec

 CABS-singles contribution of  -0.01591939 patched into reference energy.
 New reference energy        -263.78632141
 
 AO(A)-basis ORBITAL           loaded. Number of functions:     230
 RI(R)-basis CC-PVTZ/JKFIT     loaded. Number of functions:     376
 DF-basis AUG-CC-PVTZ/MP2FIT   loaded. Number of functions:     516

 Screening thresholds:   THRAO=  1.00D-10  THRMO=  1.00D-09  THRPROD=  1.00D-09
                         THRSW=  1.00D-05  THROV=  1.00D-12  THRF12=   1.00D-08

 CPU time for 3-index integral evaluation         2.89 sec
 CPU time for first  half transformation          0.21 sec (12876.7 MFLOP/sec)
 CPU time for second half transformation          0.04 sec ( 2474.2 MFLOP/sec)
 CPU time for sorting                             0.16 sec
 CPU time for fitting                             0.07 sec (20022.5 MFLOP/sec)
 CPU time for tilde quantities                    0.10 sec (18488.8 MFLOP/sec)
 CPU time for assembly                            0.87 sec (27234.5 MFLOP/sec)
 CPU time for tranop_f12                          0.98 sec (30219.7 MFLOP/sec)
 CPU time for f12 integrals (total)               7.52 sec
 F12-matrices built in  3 passes.
 F12-matrices built in  3 passes.
 F12-matrices built in  3 passes.
 F12-matrices built in  3 passes.
 FC-matrix built in  3 passes.
 CPU time for f12 matrices (total)                0.57 sec

 Diagonal F12 approximation with fixed coefficients:  TSING= 0.500,  TTRIP= 0.250 (scaled by -1/beta)

 DF-MP2-F12 energy corrections:
 ------------------------------
 Approx.                                    Singlet             Triplet             Total
 DF-MP2-F12/3*C(DX,FIX)                -0.097427749333     -0.016930269046     -0.114358018379
 DF-MP2-F12/3*C(FIX)                   -0.079850938968     -0.013393645712     -0.093244584680
 DF-MP2-F12/3C(FIX)                    -0.080213358339     -0.013417919934     -0.093631278273

 DF-MP2-F12 correlation energies:
 --------------------------------
 Approx.                                    Singlet             Triplet             Ecorr            Total Energy
 DF-MP2                                -0.537675861728     -0.343100743887     -0.880776605615   -264.667098017761
 DF-MP2-F12/3*C(DX,FIX)                -0.635103611061     -0.360031012933     -0.995134623994   -264.781456036139
 DF-MP2-F12/3*C(FIX)                   -0.617526800695     -0.356494389599     -0.974021190295   -264.760342602441
 DF-MP2-F12/3C(FIX)                    -0.617889220066     -0.356518663822     -0.974407883888   -264.760729296034

 SCS-DF-MP2 energies (F_SING= 1.20000  F_TRIP= 0.62222  F_PARALLEL= 0.33333):
 ----------------------------------------------------------------------------
 SCS-DF-MP2                            -0.858695941381   -264.645017353527
 SCS-DF-MP2-F12/3*C(DX,FIX)            -0.986143630209   -264.772465042355
 SCS-DF-MP2-F12/3*C(FIX)               -0.962850892141   -264.749172304287
 SCS-DF-MP2-F12/3C(FIX)                -0.963300899346   -264.749622311492

 Symmetry restored.
 Symmetry transformation completed.

 Number of N-1 electron functions:              12
 Number of N-2 electron functions:              78
 Number of singly external CSFs:              1476
 Number of doubly external CSFs:           1686804
 Total number of CSFs:                     1688281

 Pair and operator lists are different

 Length of J-op  integral file:             466.42 MB
 Length of K-op  integral file:             526.62 MB
 Length of 3-ext integral record:             0.00 MB

 Memory could be reduced to 76.61 Mwords without degradation in triples

 Integral transformation finished. Total CPU:   5.27 sec, npass=  1  Memory used:  24.61 MW

 Reference energy:                   -263.78632141

 Adding F12 terms to K(Cij), methodcc=6,  factor=1.0

 ITER.      SQ.NORM     CORR.ENERGY   TOTAL ENERGY   ENERGY CHANGE        DEN1      VAR(S)    VAR(P)  DIIS     TIME
   1      1.20210264    -0.86274679  -264.64906820     0.01804595     0.04664033  0.72D-02  0.56D-02  1  1    18.38
   2      1.21640327    -0.85853502  -264.64485643     0.00421178    -0.02013282  0.87D-04  0.59D-03  2  2    21.66
   3      1.22176476    -0.85863419  -264.64495560    -0.00009917    -0.00236517  0.13D-03  0.32D-04  3  3    25.03
   4      1.22456714    -0.85850670  -264.64482811     0.00012749    -0.00141117  0.76D-05  0.41D-05  4  4    28.58
   5      1.22559678    -0.85846908  -264.64479050     0.00003762    -0.00036594  0.56D-06  0.28D-06  5  5    32.22
   6      1.22575889    -0.85844222  -264.64476363     0.00002687    -0.00000804  0.40D-07  0.24D-07  6  6    36.00
   7      1.22578825    -0.85843980  -264.64476121     0.00000242    -0.00000622  0.26D-08  0.40D-08  6  4    39.55
   8      1.22578855    -0.85843931  -264.64476072     0.00000049     0.00000194  0.39D-09  0.27D-09  6  1    43.19
   9      1.22578917    -0.85843937  -264.64476078    -0.00000007     0.00000056  0.26D-10  0.21D-10  6  2    46.78

 Norm of t1 vector:      0.10596493      S-energy:    -0.00000003      T1 diagnostic:  0.01529472
                                                                       D1 diagnostic:  0.04501675

 Adding energy correction from Wij-K(Fij), methodcc=6  factor=1.0
 
  CCSD correlation energy              -0.858439372532
  MP2-F12 correction (uncoupled)       -0.092473114922
  C*T doubles correction               -0.001474261073
  f12b correction                       0.015405653332


 Total CPU time for triples:     84.99 sec


 RESULTS
 =======

  Reference energy                   -263.770402019644
  F12 singles correction               -0.015919392503

 F12 singles corrections added to reference energy

  New reference energy               -263.786321412146

  F12a singlet correction              -0.080411429005
  F12a triplet correction              -0.013535946989
  F12a total correction                -0.093947375995

 F12a corrections for ansatz F12/3C(FIX) added to CCSD energy
 
  CCSD-F12a singlet pair energy        -0.641821178185
  CCSD-F12a triplet pair energy        -0.310565543821
  CCSD-F12a correlation energy         -0.952386748527

  Triples (T) contribution             -0.037640933099
  Total correlation energy             -0.990027681626

  CCSD-F12a total energy             -264.738708160673
  CCSD[T]-F12a energy                -264.778889504169
  CCSD-T-F12a energy                 -264.775413444818
 !CCSD(T)-F12a total energy          -264.776349093773

 F12b corrections for ansatz F12/3C(FIX) added to CCSD(T)-F12a energy

  CCSD-F12b singlet pair energy        -0.627639007440
  CCSD-F12b triplet pair energy        -0.309342061234
  CCSD-F12b correlation energy         -0.936981095195

  Triples (T) contribution             -0.037640933099
  Total correlation energy             -0.974622028295

  CCSD-F12b total energy             -264.723302507342
  CCSD[T]-F12b energy                -264.763483850837
  CCSD-T-F12b energy                 -264.760007791486
 !CCSD(T)-F12b total energy          -264.760943440441

 Timing summary (sec):

 STEP                 CPU(USER)    SYS     CPU(TOT)    WALL
 Transformation          5.31      0.61      5.92      5.91
 CCSD iterations        31.73      1.60     33.33     33.98
 Triples                84.99      1.66     86.65     86.61
 MP2-F12                 9.75      1.38     11.13     11.13
 F12b energy             2.51      0.04      2.55      2.55

 Program statistics:

 Available memory in ccsd:                99998934
 Min. memory needed in ccsd:               4458306
 Max. memory used in ccsd:                 5958390
 Max. memory used in cckext:               6352469 (10 integral passes)



 **********************************************************************************************************************************
 DATASETS  * FILE   NREC   LENGTH (MB)   RECORD NAMES
              1      20      269.66       500      610      700      900      950      970     1000      129      960     1100   
                                          VAR    BASINP    GEOM    SYMINP    ZMAT    AOBASIS   BASIS     P2S    ABASIS      S 
                                         1400     1410     1200     1210     1080     1600     1650     1700      960(1)  1380   
                                           T        V       H0       H01     AOSYM     SMH    MOLCAS    OPER    ABASIS    JKOP   

              2       5        1.55       700     1000     2100     7360     7350   
                                         GEOM     BASIS     RHF    F12ABS    EF12   

 PROGRAMS   *        TOTAL   CCSD(T)        HF       INT
 CPU TIMES  *       148.09    134.62      4.69      8.68
 REAL TIME  *       155.74 SEC
 DISK USED  *         2.44 GB      
 SF USED    *         1.53 GB      
 GA USED    *         2.40 MB       (max)       0.00 MB       (current)
 **********************************************************************************************************************************

     CCSD(T)-F12        HF-SCF  
   -264.76094344   -263.77040202
 **********************************************************************************************************************************
 Variable memory released
