
 Primary working directories    : /scratch/kee
 Secondary working directories  : /scratch/kee
 Wavefunction directory         : /home/kee/wfu/
 Main file repository           : /scratch/kee/

 ARCHNAME  : Linux/x86_64
 FC        : /opt/intel/composer_xe_2015.0.090/bin/intel64/ifort
 FCVERSION : 15.0.0
 BLASLIB   : -L/opt/intel/mkl/lib/intel64 -lmkl_intel_ilp64 -lmkl_sequential -lmkl_core
 id        : emory

 Nodes     nprocs
 node24       3
 Number of processes for MPI-2 version of Molpro:   nprocs(total)=    4   nprocs(compute)=    3   nprocs(helper)=    1
 ga_uses_ma=false, calling ma_init with nominal heap.
 GA-space will be limited to   8.0 MW (determined by -G option)

 Using customized tuning parameters: mindgm=7; mindgv=32; mindgc=1; mindgr=1; noblas=0; mincuda=1000; minvec=7
 default implementation of scratch files=sf  

 ***,co2h2o
 memory,100,m
 basis avtz
 geomtype = xyz
 geometry = {
 6
    -264.76489694
 O     0.82869278    1.16169550    0.00000000
 O     0.82658011   -1.16233555    0.00000000
 O    -3.44123448    0.00136690    0.00000000
 H    -4.02486749    0.76196155    0.00000000
 H    -4.02459938   -0.75943502    0.00000000
 C     0.80876519   -0.00029961    0.00000000
 }
 hf
 ccsd(t)-f12
 ---

 Variables initialized (665), CPU time= 0.01 sec
 Commands  initialized (462), CPU time= 0.01 sec, 486 directives.
 Default parameters read. Elapsed time= 0.05 sec

 Checking input...
 Passed
1


                                         ***  PROGRAM SYSTEM MOLPRO  ***
                         Copyright, University College Cardiff Consultants Limited, 2008

                                    Version 2010.1 linked 9 Dec 2014 15:06:28 


 **********************************************************************************************************************************
 LABEL *   co2h2o                                                                        
 Linux-2.6.32-504.el6.x86_64/node24(x86_64) 64 bit mpp version                           DATE: 06-Dec-16          TIME: 23:43:13  
 **********************************************************************************************************************************

 Patch level:      19
 **********************************************************************************************************************************

 Variable memory set to  100000000 words,  buffer space   230000 words

 SETTING BASIS          =    AVTZ
 SETTING GEOMTYPE       =    XYZ

Geometry recognized as XYZ



 Recomputing integrals since basis changed


 Using spherical harmonics

 Library entry O      S aug-cc-pVTZ          selected for orbital group  1
 Library entry O      P aug-cc-pVTZ          selected for orbital group  1
 Library entry O      D aug-cc-pVTZ          selected for orbital group  1
 Library entry O      F aug-cc-pVTZ          selected for orbital group  1
 Library entry H      S aug-cc-pVTZ          selected for orbital group  2
 Library entry H      P aug-cc-pVTZ          selected for orbital group  2
 Library entry H      D aug-cc-pVTZ          selected for orbital group  2
 Library entry C      S aug-cc-pVTZ          selected for orbital group  3
 Library entry C      P aug-cc-pVTZ          selected for orbital group  3
 Library entry C      D aug-cc-pVTZ          selected for orbital group  3
 Library entry C      F aug-cc-pVTZ          selected for orbital group  3

1PROGRAM * SEWARD (Integral evaluation for generally contracted gaussian basis sets)     Author: Roland Lindh, 1990

 Geometry written to block  1 of record 700


 Point group  Cs  



 ATOMIC COORDINATES

 NR  ATOM    CHARGE       X              Y              Z

   1  O       8.00    1.566002401    2.195286343    0.000000000
   2  O       8.00    1.562010034   -2.196495862    0.000000000
   3  O       8.00   -6.502990721    0.002583067    0.000000000
   4  H       1.00   -7.605897271    1.439898652    0.000000000
   5  H       1.00   -7.605390617   -1.435124202    0.000000000
   6  C       6.00    1.528344714   -0.000566181    0.000000000

 Bond lengths in Bohr (Angstrom)

 1-6  2.196175405  2-6  2.196187724  3-4  1.811706088  3-5  1.811708509
     (1.162165971)     (1.162172490)     (0.958713571)     (0.958714852)

 Bond angles

  1-6-2  178.13918425   4-3-5  105.01947441

 NUCLEAR CHARGE:                   32
 NUMBER OF PRIMITIVE AOS:         322
 NUMBER OF SYMMETRY AOS:          282
 NUMBER OF CONTRACTIONS:          230   ( 152A'  +  78A"  )
 NUMBER OF CORE ORBITALS:           4   (   4A'  +   0A"  )
 NUMBER OF VALENCE ORBITALS:       18   (  14A'  +   4A"  )


 NUCLEAR REPULSION ENERGY   93.40973199


 Eigenvalues of metric

         1 0.338E-03 0.360E-03 0.368E-03 0.377E-03 0.895E-03 0.919E-03 0.155E-02 0.162E-02
         2 0.317E-02 0.348E-02 0.567E-02 0.124E-01 0.135E-01 0.280E-01 0.296E-01 0.311E-01


 Contracted 2-electron integrals neglected if value below      1.0D-11
 AO integral compression algorithm  1   Integral accuracy      1.0D-11

     547.095 MB (compressed) written to integral file ( 32.9%)

     Node minimum: 173.015 MB, node maximum: 191.103 MB


 NUMBER OF SORTED TWO-ELECTRON INTEGRALS:   59950380.     BUFFER LENGTH:  32768
 NUMBER OF SEGMENTS:   4  SEGMENT LENGTH:   15995235      RECORD LENGTH: 524288

 Memory used in sort:      16.55 MW

 SORT1 READ   207531521. AND WROTE    43009530. INTEGRALS IN    126 RECORDS. CPU TIME:     3.14 SEC, REAL TIME:     3.62 SEC
 SORT2 READ   129727931. AND WROTE   179836431. INTEGRALS IN   2094 RECORDS. CPU TIME:     1.12 SEC, REAL TIME:     1.52 SEC

 Node minimum:    59940574.  Node maximum:    59950380. integrals

 OPERATOR DM      FOR CENTER  0  COORDINATES:    0.000000    0.000000    0.000000


 **********************************************************************************************************************************
 DATASETS  * FILE   NREC   LENGTH (MB)   RECORD NAMES
              1      18        3.74       500      610      700      900      950      970     1000      129      960     1100   
                                          VAR    BASINP    GEOM    SYMINP    ZMAT    AOBASIS   BASIS     P2S    ABASIS      S 
                                         1400     1410     1200     1210     1080     1600     1650     1700   
                                           T        V       H0       H01     AOSYM     SMH    MOLCAS    OPER   

 PROGRAMS   *        TOTAL       INT
 CPU TIMES  *         8.85      8.74
 REAL TIME  *        12.51 SEC
 DISK USED  *         2.09 GB      
 GA USED    *         0.00 MB       (max)       0.00 MB       (current)
 **********************************************************************************************************************************

1PROGRAM * RHF-SCF (CLOSED SHELL)       Authors: W. Meyer, H.-J. Werner


 NUMBER OF ELECTRONS:      16+   16-
 CONVERGENCE THRESHOLDS:    1.00E-05 (Density)    1.00E-07 (Energy)
 MAX. NUMBER OF ITERATIONS:       60
 INTERPOLATION TYPE:            DIIS
 INTERPOLATION STEPS:              2 (START)      1 (STEP)
 LEVEL SHIFTS:                  0.00 (CLOSED)  0.00 (OPEN) 



 Orbital guess generated from atomic densities. Full valence occupancy:   18   4

 Molecular orbital dump at record        2100.2

 Initial alpha occupancy:  13   3
 Initial beta  occupancy:  13   3
 Wave function symmetry:    1

 ITERATION    DDIFF          GRAD             ENERGY        2-EL.EN.            DIPOLE MOMENTS         DIIS
    1      0.000D+00      0.000D+00      -263.66287910    382.776863   -1.18469   -0.00012    0.00000    0
    2      0.000D+00      0.626D-02      -263.72768431    378.078407   -0.73667   -0.00008    0.00000    1
    3      0.100D-01      0.423D-02      -263.77007803    380.642837   -0.84484   -0.00008    0.00000    2
    4      0.412D-02      0.403D-03      -263.77057317    380.437600   -0.84765   -0.00008    0.00000    3
    5      0.486D-03      0.117D-03      -263.77063124    380.435687   -0.84279   -0.00008    0.00000    4
    6      0.182D-03      0.476D-04      -263.77063851    380.451071   -0.84355   -0.00008    0.00000    5
    7      0.608D-04      0.115D-04      -263.77063924    380.442559   -0.84313   -0.00008    0.00000    6
    8      0.197D-04      0.254D-05      -263.77063928    380.443878   -0.84314   -0.00008    0.00000    7
    9      0.540D-05      0.849D-06      -263.77063929    380.443669   -0.84311   -0.00008    0.00000    0

 Final occupancy:  13   3

 !RHF STATE 1.1 Energy               -263.770639286154
 Nuclear energy                        93.40973199
 One-electron energy                 -547.40220598
 Two-electron energy                  190.22183470
 Virial quotient                       -1.00184194
 !RHF STATE 1.1 Dipole moment          -0.84311220    -0.00007887     0.00000000
 Dipole moment /Debye                  -2.14283710    -0.00020045     0.00000000

 Orbital energies:

         1.1          2.1          3.1          4.1          5.1          6.1          7.1          8.1          9.1         10.1
    -20.642818   -20.642772   -20.571091   -11.451924    -1.520479    -1.467453    -1.356354    -0.791113    -0.733461    -0.721804

        11.1         12.1         13.1         14.1         15.1
     -0.704266    -0.588158    -0.534324     0.027643     0.047393

         1.2          2.2          3.2          4.2          5.2
     -0.704671    -0.534475    -0.514105     0.080640     0.162973


 **********************************************************************************************************************************
 DATASETS  * FILE   NREC   LENGTH (MB)   RECORD NAMES
              1      18        3.76       500      610      700      900      950      970     1000      129      960     1100   
                                          VAR    BASINP    GEOM    SYMINP    ZMAT    AOBASIS   BASIS     P2S    ABASIS      S 
                                         1400     1410     1200     1210     1080     1600     1650     1700   
                                           T        V       H0       H01     AOSYM     SMH    MOLCAS    OPER   

              2       3        0.96       700     1000     2100   
                                         GEOM     BASIS     RHF  

 PROGRAMS   *        TOTAL        HF       INT
 CPU TIMES  *        14.36      5.52      8.74
 REAL TIME  *        18.30 SEC
 DISK USED  *         2.11 GB      
 SF USED    *         0.12 MB      
 GA USED    *         0.00 MB       (max)       0.00 MB       (current)
 **********************************************************************************************************************************


1PROGRAM * CCSD (Closed-shell coupled cluster)     Authors: C. Hampel, H.-J. Werner, 1991, M. Deegan, P.J. Knowles, 1992

                                  CCSD-F12 implementation by  H.-J. Werner, 2007

                   Density fitting integral evaluation by F.R. Manby, 2003,2007, G. Knizia, 2010

 Basis set CC-PVTZ/JKFIT generated.      Number of basis functions:   376 
 Basis set AUG-CC-PVTZ/MP2FIT generated. Number of basis functions:   516 

 Convergence thresholds:  THRVAR = 1.00D-08  THRDEN = 1.00D-06

 CCSD(T)     terms to be evaluated (factor= 1.000)


 Number of core orbitals:           4 (   4   0 )
 Number of closed-shell orbitals:  12 (   9   3 )
 Number of external orbitals:     214 ( 139  75 )

 Molecular orbitals read from record     2100.2  Type=RHF/CANONICAL (state 1.1)

 MP2-F12 correlation treatment (H.-J. Werner, 2006)
 --------------------------------------------------

 Using MP2-F12 with ansatz 3C(FIX)

 Using projected zeroth-order Hamiltonian (+Z)

 FOCKRIB=T FOCKRIC=T FOCKRIP=T CABSP=T CABSA=T CABSK=T CABSF=T GBC=F EBC=F DMAT=T NOFIK=T NOPAO=1 SOLVE=-1  USEPAO=0
 EXCH_A= T EXCH_B= F EXCH_C= F EXCH_P= F
 
 Geminal basis:    OPTFULL  GEM_TYPE=SLATER  BETA=1.0  NGEM=6

 Optimizing Gaussian exponents for each gem_beta

 Geminal optimization for beta= 1.0000
 Weight function:   m=0, omega= 1.4646

 Augmented Hessian optimization of geminal fit. Trust ratio= 0.40000
 Convergence reached after   2 iterations. Final gradient= 8.24D-16, Step= 4.32D-06, Delta= 1.28D-09
 
 Alpha:                 0.19532     0.81920     2.85917     9.50073    35.69989   197.79328
 Coeff:                 0.27070     0.30552     0.18297     0.10986     0.06810     0.04224
 

 Symmetry turned off. Reference energy:       -263.770639286153

 All pairs explicitly correlated. Number of r12-pairs:           78
 
 AO(A)-basis ORBITAL           loaded. Number of functions:     230
 RI(R)-basis CC-PVTZ/JKFIT     loaded. Number of functions:     376
 DF-basis CC-PVTZ/JKFIT        loaded. Number of functions:     376

 Screening thresholds:   THRAO=  1.00D-10  THRMO=  1.00D-09  THRPROD=  1.00D-09
                         THRSW=  1.00D-05  THROV=  1.00D-12  THRF12=   1.00D-08

 CPU time for Fock operators                      1.51 sec
 
 Construction of ABS:
 Smallest eigenvalue of S          2.57E-04  (threshold= 1.00E-08)
 Ratio eigmin/eigmax               1.83E-06  (threshold= 1.00E-09)
 Smallest eigenvalue of S kept     2.57E-04  (threshold= 2.57E-04, 0 functions deleted, 376 kept)
 
 Construction of CABS:
 Smallest eigenvalue of S          2.29E-08  (threshold= 1.00E-08)
 Ratio eigmin/eigmax               2.29E-08  (threshold= 1.00E-09)
 Smallest eigenvalue of S kept     2.29E-08  (threshold= 2.29E-08, 0 functions deleted, 376 kept)
 
 CPU time for CABS singles                        0.18 sec

 CABS-singles contribution of  -0.01591786 patched into reference energy.
 New reference energy        -263.78655714
 
 AO(A)-basis ORBITAL           loaded. Number of functions:     230
 RI(R)-basis CC-PVTZ/JKFIT     loaded. Number of functions:     376
 DF-basis AUG-CC-PVTZ/MP2FIT   loaded. Number of functions:     516

 Screening thresholds:   THRAO=  1.00D-10  THRMO=  1.00D-09  THRPROD=  1.00D-09
                         THRSW=  1.00D-05  THROV=  1.00D-12  THRF12=   1.00D-08

 CPU time for 3-index integral evaluation         3.86 sec
 CPU time for first  half transformation          0.28 sec (11340.4 MFLOP/sec)
 CPU time for second half transformation          0.07 sec ( 1658.9 MFLOP/sec)
 CPU time for sorting                             0.16 sec
 CPU time for fitting                             0.07 sec (20265.9 MFLOP/sec)
 CPU time for tilde quantities                    0.55 sec ( 3584.3 MFLOP/sec)
 CPU time for assembly                            1.00 sec (27234.2 MFLOP/sec)
 CPU time for tranop_f12                          1.27 sec (28519.2 MFLOP/sec)
 CPU time for f12 integrals (total)               9.79 sec
 F12-matrices built in  3 passes.
 F12-matrices built in  3 passes.
 F12-matrices built in  3 passes.
 F12-matrices built in  3 passes.
 FC-matrix built in  3 passes.
 CPU time for f12 matrices (total)                0.85 sec

 Diagonal F12 approximation with fixed coefficients:  TSING= 0.500,  TTRIP= 0.250 (scaled by -1/beta)

 DF-MP2-F12 energy corrections:
 ------------------------------
 Approx.                                    Singlet             Triplet             Total
 DF-MP2-F12/3*C(DX,FIX)                -0.097417146831     -0.016929457491     -0.114346604321
 DF-MP2-F12/3*C(FIX)                   -0.079843144388     -0.013393857017     -0.093237001405
 DF-MP2-F12/3C(FIX)                    -0.080205709764     -0.013418606880     -0.093624316644

 DF-MP2-F12 correlation energies:
 --------------------------------
 Approx.                                    Singlet             Triplet             Ecorr            Total Energy
 DF-MP2                                -0.537675477511     -0.343131517361     -0.880806994872   -264.667364138181
 DF-MP2-F12/3*C(DX,FIX)                -0.635092624342     -0.360060974852     -0.995153599194   -264.781710742503
 DF-MP2-F12/3*C(FIX)                   -0.617518621899     -0.356525374378     -0.974043996277   -264.760601139586
 DF-MP2-F12/3C(FIX)                    -0.617881187275     -0.356550124241     -0.974431311516   -264.760988454825

 SCS-DF-MP2 energies (F_SING= 1.20000  F_TRIP= 0.62222  F_PARALLEL= 0.33333):
 ----------------------------------------------------------------------------
 SCS-DF-MP2                            -0.858714628260   -264.645271771569
 SCS-DF-MP2-F12/3*C(DX,FIX)            -0.986149089118   -264.772706232427
 SCS-DF-MP2-F12/3*C(FIX)               -0.962860357003   -264.749417500312
 SCS-DF-MP2-F12/3C(FIX)                -0.963310835369   -264.749867978678

 Symmetry restored.
 Symmetry transformation completed.

 Number of N-1 electron functions:              12
 Number of N-2 electron functions:              78
 Number of singly external CSFs:              1476
 Number of doubly external CSFs:           1686804
 Total number of CSFs:                     1688281

 Pair and operator lists are different

 Length of J-op  integral file:             466.42 MB
 Length of K-op  integral file:             526.62 MB
 Length of 3-ext integral record:             0.00 MB

 Memory could be reduced to 76.61 Mwords without degradation in triples

 Integral transformation finished. Total CPU:   8.59 sec, npass=  1  Memory used:  24.61 MW

 Reference energy:                   -263.78655714

 Adding F12 terms to K(Cij), methodcc=6,  factor=1.0

 ITER.      SQ.NORM     CORR.ENERGY   TOTAL ENERGY   ENERGY CHANGE        DEN1      VAR(S)    VAR(P)  DIIS     TIME
   1      1.20210062    -0.86277832  -264.64933546     0.01804473     0.04663143  0.72D-02  0.55D-02  1  1    26.36
   2      1.21639983    -0.85857041  -264.64512756     0.00420790    -0.02012955  0.87D-04  0.59D-03  2  2    31.17
   3      1.22176228    -0.85867049  -264.64522764    -0.00010008    -0.00236557  0.13D-03  0.32D-04  3  3    36.63
   4      1.22456523    -0.85854305  -264.64510019     0.00012744    -0.00141130  0.76D-05  0.41D-05  4  4    41.25
   5      1.22559489    -0.85850545  -264.64506259     0.00003760    -0.00036585  0.56D-06  0.28D-06  5  5    45.67
   6      1.22575698    -0.85847858  -264.64503573     0.00002687    -0.00000804  0.40D-07  0.24D-07  6  6    50.38
   7      1.22578635    -0.85847616  -264.64503331     0.00000242    -0.00000622  0.26D-08  0.40D-08  6  4    54.53
   8      1.22578666    -0.85847567  -264.64503281     0.00000049     0.00000193  0.40D-09  0.27D-09  6  1    58.30
   9      1.22578728    -0.85847573  -264.64503288    -0.00000007     0.00000056  0.27D-10  0.22D-10  6  2    62.24

 Norm of t1 vector:      0.10597501      S-energy:    -0.00000003      T1 diagnostic:  0.01529617
                                                                       D1 diagnostic:  0.04503874

 Adding energy correction from Wij-K(Fij), methodcc=6  factor=1.0
 
  CCSD correlation energy              -0.858475734653
  MP2-F12 correction (uncoupled)       -0.092466744612
  C*T doubles correction               -0.001473285698
  f12b correction                       0.015405173386


 Total CPU time for triples:     82.27 sec


 RESULTS
 =======

  Reference energy                   -263.770639286153
  F12 singles correction               -0.015917857156

 F12 singles corrections added to reference energy

  New reference energy               -263.786557143310

  F12a singlet correction              -0.080403650493
  F12a triplet correction              -0.013536379817
  F12a total correction                -0.093940030310

 F12a corrections for ansatz F12/3C(FIX) added to CCSD energy
 
  CCSD-F12a singlet pair energy        -0.641809793897
  CCSD-F12a triplet pair energy        -0.310605943926
  CCSD-F12a correlation energy         -0.952415764963

  Triples (T) contribution             -0.037647169182
  Total correlation energy             -0.990062934145

  CCSD-F12a total energy             -264.738972908273
  CCSD[T]-F12a energy                -264.779160065314
  CCSD-T-F12a energy                 -264.775684809086
 !CCSD(T)-F12a total energy          -264.776620077455

 F12b corrections for ansatz F12/3C(FIX) added to CCSD(T)-F12a energy

  CCSD-F12b singlet pair energy        -0.627628211951
  CCSD-F12b triplet pair energy        -0.309382352485
  CCSD-F12b correlation energy         -0.937010591577

  Triples (T) contribution             -0.037647169182
  Total correlation energy             -0.974657760758

  CCSD-F12b total energy             -264.723567734886
  CCSD[T]-F12b energy                -264.763754891928
  CCSD-T-F12b energy                 -264.760279635699
 !CCSD(T)-F12b total energy          -264.761214904068

 Timing summary (sec):

 STEP                 CPU(USER)    SYS     CPU(TOT)    WALL
 Transformation          8.63      0.63      9.26      9.32
 CCSD iterations        40.66      1.82     42.48     43.23
 Triples                82.27      1.66     83.93     83.91
 MP2-F12                12.98      1.47     14.45     14.47
 F12b energy             2.26      0.04      2.30      2.29

 Program statistics:

 Available memory in ccsd:                99998934
 Min. memory needed in ccsd:               4458306
 Max. memory used in ccsd:                 5958390
 Max. memory used in cckext:               6352469 (10 integral passes)



 **********************************************************************************************************************************
 DATASETS  * FILE   NREC   LENGTH (MB)   RECORD NAMES
              1      20      269.66       500      610      700      900      950      970     1000      129      960     1100   
                                          VAR    BASINP    GEOM    SYMINP    ZMAT    AOBASIS   BASIS     P2S    ABASIS      S 
                                         1400     1410     1200     1210     1080     1600     1650     1700      960(1)  1380   
                                           T        V       H0       H01     AOSYM     SMH    MOLCAS    OPER    ABASIS    JKOP   

              2       5        1.55       700     1000     2100     7360     7350   
                                         GEOM     BASIS     RHF    F12ABS    EF12   

 PROGRAMS   *        TOTAL   CCSD(T)        HF       INT
 CPU TIMES  *       161.23    146.87      5.52      8.74
 REAL TIME  *       171.84 SEC
 DISK USED  *         2.55 GB      
 SF USED    *         1.53 GB      
 GA USED    *         2.40 MB       (max)       0.00 MB       (current)
 **********************************************************************************************************************************

     CCSD(T)-F12        HF-SCF  
   -264.76121490   -263.77063929
 **********************************************************************************************************************************
 Variable memory released
