
 Primary working directories    : /scratch/kee
 Secondary working directories  : /scratch/kee
 Wavefunction directory         : /home/kee/wfu/
 Main file repository           : /scratch/kee/

 ARCHNAME  : Linux/x86_64
 FC        : /opt/intel/composer_xe_2015.0.090/bin/intel64/ifort
 FCVERSION : 15.0.0
 BLASLIB   : -L/opt/intel/mkl/lib/intel64 -lmkl_intel_ilp64 -lmkl_sequential -lmkl_core
 id        : emory

 Nodes     nprocs
 node24       3
 Number of processes for MPI-2 version of Molpro:   nprocs(total)=    4   nprocs(compute)=    3   nprocs(helper)=    1
 ga_uses_ma=false, calling ma_init with nominal heap.
 GA-space will be limited to   8.0 MW (determined by -G option)

 Using customized tuning parameters: mindgm=7; mindgv=32; mindgc=1; mindgr=1; noblas=0; mincuda=1000; minvec=7
 default implementation of scratch files=sf  

 ***,co2h2o
 memory,100,m
 basis avtz
 geomtype = xyz
 geometry = {
 6
    -264.76489694
 O     0.82869278    1.16169550    0.00000000
 O     0.82658011   -1.16233555    0.00000000
 O    -4.09123443    0.00162178    0.00000000
 H    -4.67486744    0.76221643    0.00000000
 H    -4.67459933   -0.75918014    0.00000000
 C     0.80876519   -0.00029961    0.00000000
 }
 hf
 ccsd(t)-f12
 ---

 Variables initialized (665), CPU time= 0.00 sec
 Commands  initialized (462), CPU time= 0.01 sec, 486 directives.
 Default parameters read. Elapsed time= 0.06 sec

 Checking input...
 Passed
1


                                         ***  PROGRAM SYSTEM MOLPRO  ***
                         Copyright, University College Cardiff Consultants Limited, 2008

                                    Version 2010.1 linked 9 Dec 2014 15:06:28 


 **********************************************************************************************************************************
 LABEL *   co2h2o                                                                        
 Linux-2.6.32-504.el6.x86_64/node24(x86_64) 64 bit mpp version                           DATE: 07-Dec-16          TIME: 00:17:32  
 **********************************************************************************************************************************

 Patch level:      19
 **********************************************************************************************************************************

 Variable memory set to  100000000 words,  buffer space   230000 words

 SETTING BASIS          =    AVTZ
 SETTING GEOMTYPE       =    XYZ

Geometry recognized as XYZ



 Recomputing integrals since basis changed


 Using spherical harmonics

 Library entry O      S aug-cc-pVTZ          selected for orbital group  1
 Library entry O      P aug-cc-pVTZ          selected for orbital group  1
 Library entry O      D aug-cc-pVTZ          selected for orbital group  1
 Library entry O      F aug-cc-pVTZ          selected for orbital group  1
 Library entry H      S aug-cc-pVTZ          selected for orbital group  2
 Library entry H      P aug-cc-pVTZ          selected for orbital group  2
 Library entry H      D aug-cc-pVTZ          selected for orbital group  2
 Library entry C      S aug-cc-pVTZ          selected for orbital group  3
 Library entry C      P aug-cc-pVTZ          selected for orbital group  3
 Library entry C      D aug-cc-pVTZ          selected for orbital group  3
 Library entry C      F aug-cc-pVTZ          selected for orbital group  3

1PROGRAM * SEWARD (Integral evaluation for generally contracted gaussian basis sets)     Author: Roland Lindh, 1990

 Geometry written to block  1 of record 700


 Point group  Cs  



 ATOMIC COORDINATES

 NR  ATOM    CHARGE       X              Y              Z

   1  O       8.00    1.566002401    2.195286343    0.000000000
   2  O       8.00    1.562010034   -2.196495862    0.000000000
   3  O       8.00   -7.731312612    0.003064720    0.000000000
   4  H       1.00   -8.834219162    1.440380306    0.000000000
   5  H       1.00   -8.833712508   -1.434642549    0.000000000
   6  C       6.00    1.528344714   -0.000566181    0.000000000

 Bond lengths in Bohr (Angstrom)

 1-6  2.196175405  2-6  2.196187724  3-4  1.811706088  3-5  1.811708509
     (1.162165971)     (1.162172490)     (0.958713571)     (0.958714852)

 Bond angles

  1-6-2  178.13918425   4-3-5  105.01947441

 NUCLEAR CHARGE:                   32
 NUMBER OF PRIMITIVE AOS:         322
 NUMBER OF SYMMETRY AOS:          282
 NUMBER OF CONTRACTIONS:          230   ( 152A'  +  78A"  )
 NUMBER OF CORE ORBITALS:           4   (   4A'  +   0A"  )
 NUMBER OF VALENCE ORBITALS:       18   (  14A'  +   4A"  )


 NUCLEAR REPULSION ENERGY   90.18381496


 Eigenvalues of metric

         1 0.344E-03 0.361E-03 0.385E-03 0.385E-03 0.898E-03 0.921E-03 0.164E-02 0.165E-02
         2 0.318E-02 0.348E-02 0.578E-02 0.124E-01 0.135E-01 0.283E-01 0.296E-01 0.313E-01


 Contracted 2-electron integrals neglected if value below      1.0D-11
 AO integral compression algorithm  1   Integral accuracy      1.0D-11

     477.889 MB (compressed) written to integral file ( 28.8%)

     Node minimum: 138.674 MB, node maximum: 176.423 MB


 NUMBER OF SORTED TWO-ELECTRON INTEGRALS:   59950380.     BUFFER LENGTH:  32768
 NUMBER OF SEGMENTS:   4  SEGMENT LENGTH:   15995235      RECORD LENGTH: 524288

 Memory used in sort:      16.55 MW

 SORT1 READ   207256561. AND WROTE    37221411. INTEGRALS IN    108 RECORDS. CPU TIME:     3.16 SEC, REAL TIME:     3.65 SEC
 SORT2 READ   112212984. AND WROTE   179836431. INTEGRALS IN   1587 RECORDS. CPU TIME:     1.04 SEC, REAL TIME:     1.39 SEC

 Node minimum:    59940574.  Node maximum:    59950380. integrals

 OPERATOR DM      FOR CENTER  0  COORDINATES:    0.000000    0.000000    0.000000


 **********************************************************************************************************************************
 DATASETS  * FILE   NREC   LENGTH (MB)   RECORD NAMES
              1      18        3.74       500      610      700      900      950      970     1000      129      960     1100   
                                          VAR    BASINP    GEOM    SYMINP    ZMAT    AOBASIS   BASIS     P2S    ABASIS      S 
                                         1400     1410     1200     1210     1080     1600     1650     1700   
                                           T        V       H0       H01     AOSYM     SMH    MOLCAS    OPER   

 PROGRAMS   *        TOTAL       INT
 CPU TIMES  *         8.78      8.66
 REAL TIME  *         9.91 SEC
 DISK USED  *         1.82 GB      
 GA USED    *         0.00 MB       (max)       0.00 MB       (current)
 **********************************************************************************************************************************

1PROGRAM * RHF-SCF (CLOSED SHELL)       Authors: W. Meyer, H.-J. Werner


 NUMBER OF ELECTRONS:      16+   16-
 CONVERGENCE THRESHOLDS:    1.00E-05 (Density)    1.00E-07 (Energy)
 MAX. NUMBER OF ITERATIONS:       60
 INTERPOLATION TYPE:            DIIS
 INTERPOLATION STEPS:              2 (START)      1 (STEP)
 LEVEL SHIFTS:                  0.00 (CLOSED)  0.00 (OPEN) 



 Orbital guess generated from atomic densities. Full valence occupancy:   18   4

 Molecular orbital dump at record        2100.2

 Initial alpha occupancy:  13   3
 Initial beta  occupancy:  13   3
 Wave function symmetry:    1

 ITERATION    DDIFF          GRAD             ENERGY        2-EL.EN.            DIPOLE MOMENTS         DIIS
    1      0.000D+00      0.000D+00      -263.66177985    376.215161   -1.18427   -0.00012    0.00000    0
    2      0.000D+00      0.628D-02      -263.72678371    371.545974   -0.71647   -0.00009    0.00000    1
    3      0.101D-01      0.425D-02      -263.76956935    374.114033   -0.83102   -0.00008    0.00000    2
    4      0.414D-02      0.402D-03      -263.77006432    373.906013   -0.83400   -0.00009    0.00000    3
    5      0.486D-03      0.117D-03      -263.77012235    373.905678   -0.82892   -0.00008    0.00000    4
    6      0.182D-03      0.474D-04      -263.77012957    373.920704   -0.82965   -0.00009    0.00000    5
    7      0.606D-04      0.115D-04      -263.77013030    373.912241   -0.82921   -0.00008    0.00000    6
    8      0.197D-04      0.254D-05      -263.77013034    373.913552   -0.82922   -0.00009    0.00000    7
    9      0.541D-05      0.850D-06      -263.77013035    373.913349   -0.82919   -0.00008    0.00000    0

 Final occupancy:  13   3

 !RHF STATE 1.1 Energy               -263.770130345836
 Nuclear energy                        90.18381496
 One-electron energy                 -540.91061977
 Two-electron energy                  186.95667446
 Virial quotient                       -1.00183635
 !RHF STATE 1.1 Dipole moment          -0.82919409    -0.00008471     0.00000000
 Dipole moment /Debye                  -2.10746312    -0.00021529     0.00000000

 Orbital energies:

         1.1          2.1          3.1          4.1          5.1          6.1          7.1          8.1          9.1         10.1
    -20.645270   -20.645225   -20.569781   -11.454230    -1.522931    -1.469871    -1.355038    -0.793393    -0.735699    -0.720534

        11.1         12.1         13.1         14.1         15.1
     -0.706815    -0.586571    -0.536681     0.027963     0.047187

         1.2          2.2          3.2          4.2          5.2
     -0.707068    -0.536797    -0.512731     0.079363     0.160398


 **********************************************************************************************************************************
 DATASETS  * FILE   NREC   LENGTH (MB)   RECORD NAMES
              1      18        3.76       500      610      700      900      950      970     1000      129      960     1100   
                                          VAR    BASINP    GEOM    SYMINP    ZMAT    AOBASIS   BASIS     P2S    ABASIS      S 
                                         1400     1410     1200     1210     1080     1600     1650     1700   
                                           T        V       H0       H01     AOSYM     SMH    MOLCAS    OPER   

              2       3        0.96       700     1000     2100   
                                         GEOM     BASIS     RHF  

 PROGRAMS   *        TOTAL        HF       INT
 CPU TIMES  *        13.32      4.54      8.66
 REAL TIME  *        14.71 SEC
 DISK USED  *         1.84 GB      
 SF USED    *         0.12 MB      
 GA USED    *         0.00 MB       (max)       0.00 MB       (current)
 **********************************************************************************************************************************


1PROGRAM * CCSD (Closed-shell coupled cluster)     Authors: C. Hampel, H.-J. Werner, 1991, M. Deegan, P.J. Knowles, 1992

                                  CCSD-F12 implementation by  H.-J. Werner, 2007

                   Density fitting integral evaluation by F.R. Manby, 2003,2007, G. Knizia, 2010

 Basis set CC-PVTZ/JKFIT generated.      Number of basis functions:   376 
 Basis set AUG-CC-PVTZ/MP2FIT generated. Number of basis functions:   516 

 Convergence thresholds:  THRVAR = 1.00D-08  THRDEN = 1.00D-06

 CCSD(T)     terms to be evaluated (factor= 1.000)


 Number of core orbitals:           4 (   4   0 )
 Number of closed-shell orbitals:  12 (   9   3 )
 Number of external orbitals:     214 ( 139  75 )

 Molecular orbitals read from record     2100.2  Type=RHF/CANONICAL (state 1.1)

 MP2-F12 correlation treatment (H.-J. Werner, 2006)
 --------------------------------------------------

 Using MP2-F12 with ansatz 3C(FIX)

 Using projected zeroth-order Hamiltonian (+Z)

 FOCKRIB=T FOCKRIC=T FOCKRIP=T CABSP=T CABSA=T CABSK=T CABSF=T GBC=F EBC=F DMAT=T NOFIK=T NOPAO=1 SOLVE=-1  USEPAO=0
 EXCH_A= T EXCH_B= F EXCH_C= F EXCH_P= F
 
 Geminal basis:    OPTFULL  GEM_TYPE=SLATER  BETA=1.0  NGEM=6

 Optimizing Gaussian exponents for each gem_beta

 Geminal optimization for beta= 1.0000
 Weight function:   m=0, omega= 1.4646

 Augmented Hessian optimization of geminal fit. Trust ratio= 0.40000
 Convergence reached after   2 iterations. Final gradient= 8.24D-16, Step= 4.32D-06, Delta= 1.28D-09
 
 Alpha:                 0.19532     0.81920     2.85917     9.50073    35.69989   197.79328
 Coeff:                 0.27070     0.30552     0.18297     0.10986     0.06810     0.04224
 

 Symmetry turned off. Reference energy:       -263.770130345835

 All pairs explicitly correlated. Number of r12-pairs:           78
 
 AO(A)-basis ORBITAL           loaded. Number of functions:     230
 RI(R)-basis CC-PVTZ/JKFIT     loaded. Number of functions:     376
 DF-basis CC-PVTZ/JKFIT        loaded. Number of functions:     376

 Screening thresholds:   THRAO=  1.00D-10  THRMO=  1.00D-09  THRPROD=  1.00D-09
                         THRSW=  1.00D-05  THROV=  1.00D-12  THRF12=   1.00D-08

 CPU time for Fock operators                      1.05 sec
 
 Construction of ABS:
 Smallest eigenvalue of S          2.57E-04  (threshold= 1.00E-08)
 Ratio eigmin/eigmax               1.83E-06  (threshold= 1.00E-09)
 Smallest eigenvalue of S kept     2.57E-04  (threshold= 2.57E-04, 0 functions deleted, 376 kept)
 
 Construction of CABS:
 Smallest eigenvalue of S          2.30E-08  (threshold= 1.00E-08)
 Ratio eigmin/eigmax               2.30E-08  (threshold= 1.00E-09)
 Smallest eigenvalue of S kept     2.30E-08  (threshold= 2.30E-08, 0 functions deleted, 376 kept)
 
 CPU time for CABS singles                        0.18 sec

 CABS-singles contribution of  -0.01592072 patched into reference energy.
 New reference energy        -263.78605106
 
 AO(A)-basis ORBITAL           loaded. Number of functions:     230
 RI(R)-basis CC-PVTZ/JKFIT     loaded. Number of functions:     376
 DF-basis AUG-CC-PVTZ/MP2FIT   loaded. Number of functions:     516

 Screening thresholds:   THRAO=  1.00D-10  THRMO=  1.00D-09  THRPROD=  1.00D-09
                         THRSW=  1.00D-05  THROV=  1.00D-12  THRF12=   1.00D-08

 CPU time for 3-index integral evaluation         2.57 sec
 CPU time for first  half transformation          0.35 sec ( 8476.7 MFLOP/sec)
 CPU time for second half transformation          0.03 sec ( 3661.2 MFLOP/sec)
 CPU time for sorting                             0.16 sec
 CPU time for fitting                             0.07 sec (19900.7 MFLOP/sec)
 CPU time for tilde quantities                    0.08 sec (23111.0 MFLOP/sec)
 CPU time for assembly                            0.86 sec (28220.0 MFLOP/sec)
 CPU time for tranop_f12                          0.99 sec (30838.7 MFLOP/sec)
 CPU time for f12 integrals (total)               7.34 sec
 F12-matrices built in  3 passes.
 F12-matrices built in  3 passes.
 F12-matrices built in  3 passes.
 F12-matrices built in  3 passes.
 FC-matrix built in  3 passes.
 CPU time for f12 matrices (total)                0.57 sec

 Diagonal F12 approximation with fixed coefficients:  TSING= 0.500,  TTRIP= 0.250 (scaled by -1/beta)

 DF-MP2-F12 energy corrections:
 ------------------------------
 Approx.                                    Singlet             Triplet             Total
 DF-MP2-F12/3*C(DX,FIX)                -0.097438825548     -0.016931640146     -0.114370465694
 DF-MP2-F12/3*C(FIX)                   -0.079859052495     -0.013394197887     -0.093253250381
 DF-MP2-F12/3C(FIX)                    -0.080220455599     -0.013417843565     -0.093638299165

 DF-MP2-F12 correlation energies:
 --------------------------------
 Approx.                                    Singlet             Triplet             Ecorr            Total Energy
 DF-MP2                                -0.537681755419     -0.343075158368     -0.880756913788   -264.666807976414
 DF-MP2-F12/3*C(DX,FIX)                -0.635120580967     -0.360006798514     -0.995127379481   -264.781178442107
 DF-MP2-F12/3*C(FIX)                   -0.617540807914     -0.356469356255     -0.974010164169   -264.760061226795
 DF-MP2-F12/3C(FIX)                    -0.617902211019     -0.356493001934     -0.974395212952   -264.760446275578

 SCS-DF-MP2 energies (F_SING= 1.20000  F_TRIP= 0.62222  F_PARALLEL= 0.33333):
 ----------------------------------------------------------------------------
 SCS-DF-MP2                            -0.858687093932   -264.644738156558
 SCS-DF-MP2-F12/3*C(DX,FIX)            -0.986148927347   -264.772199989973
 SCS-DF-MP2-F12/3*C(FIX)               -0.962852124500   -264.748903187126
 SCS-DF-MP2-F12/3C(FIX)                -0.963300521092   -264.749351583718

 Symmetry restored.
 Symmetry transformation completed.

 Number of N-1 electron functions:              12
 Number of N-2 electron functions:              78
 Number of singly external CSFs:              1476
 Number of doubly external CSFs:           1686804
 Total number of CSFs:                     1688281

 Pair and operator lists are different

 Length of J-op  integral file:             466.42 MB
 Length of K-op  integral file:             526.62 MB
 Length of 3-ext integral record:             0.00 MB

 Memory could be reduced to 76.61 Mwords without degradation in triples

 Integral transformation finished. Total CPU:   4.44 sec, npass=  1  Memory used:  24.61 MW

 Reference energy:                   -263.78605106

 Adding F12 terms to K(Cij), methodcc=6,  factor=1.0

 ITER.      SQ.NORM     CORR.ENERGY   TOTAL ENERGY   ENERGY CHANGE        DEN1      VAR(S)    VAR(P)  DIIS     TIME
   1      1.20210838    -0.86272398  -264.64877504     0.01804917     0.04665356  0.72D-02  0.56D-02  1  1    17.30
   2      1.21641134    -0.85850735  -264.64455841     0.00421663    -0.02013740  0.86D-04  0.59D-03  2  2    21.34
   3      1.22177179    -0.85860544  -264.64465651    -0.00009809    -0.00236454  0.13D-03  0.32D-04  3  3    24.96
   4      1.22457363    -0.85847788  -264.64452895     0.00012756    -0.00141111  0.76D-05  0.41D-05  4  4    28.74
   5      1.22560327    -0.85844025  -264.64449132     0.00003763    -0.00036606  0.56D-06  0.28D-06  5  5    32.70
   6      1.22576539    -0.85841339  -264.64446445     0.00002686    -0.00000805  0.40D-07  0.24D-07  6  6    36.62
   7      1.22579474    -0.85841097  -264.64446203     0.00000242    -0.00000621  0.26D-08  0.40D-08  6  4    40.51
   8      1.22579504    -0.85841048  -264.64446154     0.00000049     0.00000194  0.39D-09  0.27D-09  6  1    44.71
   9      1.22579566    -0.85841054  -264.64446161    -0.00000007     0.00000056  0.26D-10  0.21D-10  6  2    48.71

 Norm of t1 vector:      0.10595624      S-energy:    -0.00000003      T1 diagnostic:  0.01529347
                                                                       D1 diagnostic:  0.04499365

 Adding energy correction from Wij-K(Fij), methodcc=6  factor=1.0
 
  CCSD correlation energy              -0.858410544765
  MP2-F12 correction (uncoupled)       -0.092481480691
  C*T doubles correction               -0.001474565650
  f12b correction                       0.015406252080


 Total CPU time for triples:     88.28 sec


 RESULTS
 =======

  Reference energy                   -263.770130345836
  F12 singles correction               -0.015920716791

 F12 singles corrections added to reference energy

  New reference energy               -263.786051062627

  F12a singlet correction              -0.080419743436
  F12a triplet correction              -0.013536302906
  F12a total correction                -0.093956046341

 F12a corrections for ansatz F12/3C(FIX) added to CCSD energy
 
  CCSD-F12a singlet pair energy        -0.641837086717
  CCSD-F12a triplet pair energy        -0.310529478525
  CCSD-F12a correlation energy         -0.952366591106

  Triples (T) contribution             -0.037636236478
  Total correlation energy             -0.990002827584

  CCSD-F12a total energy             -264.738417653733
  CCSD[T]-F12a energy                -264.778594950400
  CCSD-T-F12a energy                 -264.775117755594
 !CCSD(T)-F12a total energy          -264.776053890211

 F12b corrections for ansatz F12/3C(FIX) added to CCSD(T)-F12a energy

  CCSD-F12b singlet pair energy        -0.627654255662
  CCSD-F12b triplet pair energy        -0.309306057499
  CCSD-F12b correlation energy         -0.936960339026

  Triples (T) contribution             -0.037636236478
  Total correlation energy             -0.974596575504

  CCSD-F12b total energy             -264.723011401652
  CCSD[T]-F12b energy                -264.763188698319
  CCSD-T-F12b energy                 -264.759711503513
 !CCSD(T)-F12b total energy          -264.760647638130

 Timing summary (sec):

 STEP                 CPU(USER)    SYS     CPU(TOT)    WALL
 Transformation          4.47      0.53      5.00      5.00
 CCSD iterations        34.65      1.76     36.41     38.89
 Triples                88.28      1.73     90.01     90.34
 MP2-F12                 9.60      1.34     10.94     10.94
 F12b energy             2.78      0.05      2.83      2.84

 Program statistics:

 Available memory in ccsd:                99998934
 Min. memory needed in ccsd:               4458306
 Max. memory used in ccsd:                 5958390
 Max. memory used in cckext:               6352469 (10 integral passes)



 **********************************************************************************************************************************
 DATASETS  * FILE   NREC   LENGTH (MB)   RECORD NAMES
              1      20      269.66       500      610      700      900      950      970     1000      129      960     1100   
                                          VAR    BASINP    GEOM    SYMINP    ZMAT    AOBASIS   BASIS     P2S    ABASIS      S 
                                         1400     1410     1200     1210     1080     1600     1650     1700      960(1)  1380   
                                           T        V       H0       H01     AOSYM     SMH    MOLCAS    OPER    ABASIS    JKOP   

              2       5        1.55       700     1000     2100     7360     7350   
                                         GEOM     BASIS     RHF    F12ABS    EF12   

 PROGRAMS   *        TOTAL   CCSD(T)        HF       INT
 CPU TIMES  *       153.17    139.85      4.54      8.66
 REAL TIME  *       163.07 SEC
 DISK USED  *         2.28 GB      
 SF USED    *         1.53 GB      
 GA USED    *         2.40 MB       (max)       0.00 MB       (current)
 **********************************************************************************************************************************

     CCSD(T)-F12        HF-SCF  
   -264.76064764   -263.77013035
 **********************************************************************************************************************************
 Variable memory released
