
 Primary working directories    : /scratch/kee
 Secondary working directories  : /scratch/kee
 Wavefunction directory         : /home/kee/wfu/
 Main file repository           : /scratch/kee/

 ARCHNAME  : Linux/x86_64
 FC        : /opt/intel/composer_xe_2015.0.090/bin/intel64/ifort
 FCVERSION : 15.0.0
 BLASLIB   : -L/opt/intel/mkl/lib/intel64 -lmkl_intel_ilp64 -lmkl_sequential -lmkl_core
 id        : emory

 Nodes     nprocs
 node4        3
 Number of processes for MPI-2 version of Molpro:   nprocs(total)=    4   nprocs(compute)=    3   nprocs(helper)=    1
 ga_uses_ma=false, calling ma_init with nominal heap.
 GA-space will be limited to   8.0 MW (determined by -G option)

 Using customized tuning parameters: mindgm=7; mindgv=32; mindgc=1; mindgr=1; noblas=0; mincuda=1000; minvec=7
 default implementation of scratch files=sf  

 ***,co2h2o
 memory,100,m
 basis avtz
 geomtype = xyz
 geometry = {
 6
       0.00000000
 O     0.00351000    1.16210700    0.00000000
 O     0.00351000   -1.16210700    0.00000000
 O     2.91968000    0.00000000    0.00000000
 H     3.50589800    0.00000000    0.75853100
 H     3.50589800    0.00000000   -0.75853100
 C     0.01968000    0.00000000    0.00000000
 }
 hf
 ccsd(t)-f12
 ---

 Variables initialized (665), CPU time= 0.00 sec
 Commands  initialized (462), CPU time= 0.01 sec, 486 directives.
 Default parameters read. Elapsed time= 0.04 sec

 Checking input...
 Passed
1


                                         ***  PROGRAM SYSTEM MOLPRO  ***
                         Copyright, University College Cardiff Consultants Limited, 2008

                                    Version 2010.1 linked 9 Dec 2014 15:06:28 


 **********************************************************************************************************************************
 LABEL *   co2h2o                                                                        
 Linux-2.6.32-504.el6.x86_64/node4(x86_64) 64 bit mpp version                            DATE: 12-Dec-16          TIME: 14:55:09  
 **********************************************************************************************************************************

 Patch level:      19
 **********************************************************************************************************************************

 Variable memory set to  100000000 words,  buffer space   230000 words

 SETTING BASIS          =    AVTZ
 SETTING GEOMTYPE       =    XYZ

Geometry recognized as XYZ



 Recomputing integrals since basis changed


 Using spherical harmonics

 Library entry O      S aug-cc-pVTZ          selected for orbital group  1
 Library entry O      P aug-cc-pVTZ          selected for orbital group  1
 Library entry O      D aug-cc-pVTZ          selected for orbital group  1
 Library entry O      F aug-cc-pVTZ          selected for orbital group  1
 Library entry H      S aug-cc-pVTZ          selected for orbital group  2
 Library entry H      P aug-cc-pVTZ          selected for orbital group  2
 Library entry H      D aug-cc-pVTZ          selected for orbital group  2
 Library entry C      S aug-cc-pVTZ          selected for orbital group  3
 Library entry C      P aug-cc-pVTZ          selected for orbital group  3
 Library entry C      D aug-cc-pVTZ          selected for orbital group  3
 Library entry C      F aug-cc-pVTZ          selected for orbital group  3

1PROGRAM * SEWARD (Integral evaluation for generally contracted gaussian basis sets)     Author: Roland Lindh, 1990

 Geometry written to block  1 of record 700


 Point group  C2v 



 ATOMIC COORDINATES

 NR  ATOM    CHARGE       X              Y              Z

   1  O       8.00    0.006632939    2.196063965    0.000000000
   2  O       8.00    0.006632939   -2.196063965    0.000000000
   3  O       8.00    5.517395591    0.000000000    0.000000000
   4  H       1.00    6.625187065    0.000000000    1.433415852
   5  H       1.00    6.625187065    0.000000000   -1.433415852
   6  C       6.00    0.037189810    0.000000000    0.000000000

 Bond lengths in Bohr (Angstrom)

 1-6  2.196276545  2-6  2.196276545  3-4  1.811596797  3-5  1.811596797
     (1.162219492)     (1.162219492)     (0.958655737)     (0.958655737)

 Bond angles

  1-6-2  178.40563223   4-3-5  104.60391356

 NUCLEAR CHARGE:                   32
 NUMBER OF PRIMITIVE AOS:         322
 NUMBER OF SYMMETRY AOS:          282
 NUMBER OF CONTRACTIONS:          230   (  84A1  +  59B1  +  54B2  +  33A2  )
 NUMBER OF CORE ORBITALS:           4   (   3A1  +   1B1  +   0B2  +   0A2  )
 NUMBER OF VALENCE ORBITALS:       18   (   8A1  +   5B1  +   4B2  +   1A2  )


 NUCLEAR REPULSION ENERGY  104.07331413


 Eigenvalues of metric

         1 0.253E-03 0.330E-03 0.879E-03 0.913E-03 0.176E-02 0.299E-02 0.321E-02 0.347E-02
         2 0.340E-03 0.828E-03 0.173E-02 0.316E-02 0.453E-02 0.661E-02 0.133E-01 0.205E-01
         3 0.330E-03 0.156E-02 0.310E-02 0.390E-02 0.614E-02 0.791E-02 0.126E-01 0.139E-01
         4 0.346E-02 0.121E-01 0.294E-01 0.357E-01 0.547E-01 0.687E-01 0.103E+00 0.139E+00


 Contracted 2-electron integrals neglected if value below      1.0D-11
 AO integral compression algorithm  1   Integral accuracy      1.0D-11

     391.905 MB (compressed) written to integral file ( 43.9%)

     Node minimum: 123.994 MB, node maximum: 143.655 MB


 NUMBER OF SORTED TWO-ELECTRON INTEGRALS:   29979201.     BUFFER LENGTH:  32768
 NUMBER OF SEGMENTS:   2  SEGMENT LENGTH:   15996954      RECORD LENGTH: 524288

 Memory used in sort:      16.55 MW

 SORT1 READ   111555100. AND WROTE    27102878. INTEGRALS IN     78 RECORDS. CPU TIME:     2.69 SEC, REAL TIME:     3.02 SEC
 SORT2 READ    81297821. AND WROTE    89930217. INTEGRALS IN   1419 RECORDS. CPU TIME:     0.71 SEC, REAL TIME:     0.97 SEC

 Node minimum:    29974277.  Node maximum:    29979201. integrals

 OPERATOR DM      FOR CENTER  0  COORDINATES:    0.000000    0.000000    0.000000


 **********************************************************************************************************************************
 DATASETS  * FILE   NREC   LENGTH (MB)   RECORD NAMES
              1      18        3.23       500      610      700      900      950      970     1000      129      960     1100   
                                          VAR    BASINP    GEOM    SYMINP    ZMAT    AOBASIS   BASIS     P2S    ABASIS      S 
                                         1400     1410     1200     1210     1080     1600     1650     1700   
                                           T        V       H0       H01     AOSYM     SMH    MOLCAS    OPER   

 PROGRAMS   *        TOTAL       INT
 CPU TIMES  *         6.15      6.08
 REAL TIME  *         7.29 SEC
 DISK USED  *         1.35 GB      
 GA USED    *         0.00 MB       (max)       0.00 MB       (current)
 **********************************************************************************************************************************

1PROGRAM * RHF-SCF (CLOSED SHELL)       Authors: W. Meyer, H.-J. Werner


 NUMBER OF ELECTRONS:      16+   16-
 CONVERGENCE THRESHOLDS:    1.00E-05 (Density)    1.00E-07 (Energy)
 MAX. NUMBER OF ITERATIONS:       60
 INTERPOLATION TYPE:            DIIS
 INTERPOLATION STEPS:              2 (START)      1 (STEP)
 LEVEL SHIFTS:                  0.00 (CLOSED)  0.00 (OPEN) 



 Orbital guess generated from atomic densities. Full valence occupancy:   11   6   4   1

 Molecular orbital dump at record        2100.2

 Initial alpha occupancy:   8   5   2   1
 Initial beta  occupancy:   8   5   2   1
 Wave function symmetry:    1

 ITERATION    DDIFF          GRAD             ENERGY        2-EL.EN.            DIPOLE MOMENTS         DIIS
    1      0.000D+00      0.000D+00      -263.66653394    404.548637    1.20946    0.00000    0.00000    0
    2      0.000D+00      0.872D-02      -263.73040753    399.809403    0.86179    0.00000    0.00000    1
    3      0.141D-01      0.582D-02      -263.77058254    402.296239    0.93037    0.00000    0.00000    2
    4      0.571D-02      0.572D-03      -263.77108024    402.116790    0.93063    0.00000    0.00000    3
    5      0.700D-03      0.170D-03      -263.77113917    402.102673    0.92581    0.00000    0.00000    4
    6      0.263D-03      0.695D-04      -263.77114692    402.120477    0.92659    0.00000    0.00000    5
    7      0.879D-04      0.160D-04      -263.77114766    402.111872    0.92621    0.00000    0.00000    6
    8      0.289D-04      0.355D-05      -263.77114771    402.113269    0.92624    0.00000    0.00000    7
    9      0.756D-05      0.120D-05      -263.77114771    402.113021    0.92622    0.00000    0.00000    0

 Final occupancy:   8   5   2   1

 !RHF STATE 1.1 Energy               -263.771147712815
 Nuclear energy                       104.07331413
 One-electron energy                 -568.90097235
 Two-electron energy                  201.05651051
 Virial quotient                       -1.00178549
 !RHF STATE 1.1 Dipole moment           0.92622051     0.00000000     0.00000000
 Dipole moment /Debye                   2.35406354     0.00000000     0.00000000

 Orbital energies:

         1.1          2.1          3.1          4.1          5.1          6.1          7.1          8.1          9.1         10.1
    -20.630878   -20.577220   -11.441067    -1.508994    -1.363958    -0.780398    -0.695238    -0.595948     0.025056     0.065256

         1.2          2.2          3.2          4.2          5.2          6.2          7.2
    -20.630924    -1.456065    -0.722859    -0.529566    -0.515407     0.086870     0.165764

         1.3          2.3          3.3          4.3
     -0.728282    -0.693610     0.045262     0.090372

         1.4          2.4          3.4
     -0.523562     0.170108     0.270554


 **********************************************************************************************************************************
 DATASETS  * FILE   NREC   LENGTH (MB)   RECORD NAMES
              1      18        3.25       500      610      700      900      950      970     1000      129      960     1100   
                                          VAR    BASINP    GEOM    SYMINP    ZMAT    AOBASIS   BASIS     P2S    ABASIS      S 
                                         1400     1410     1200     1210     1080     1600     1650     1700   
                                           T        V       H0       H01     AOSYM     SMH    MOLCAS    OPER   

              2       3        0.67       700     1000     2100   
                                         GEOM     BASIS     RHF  

 PROGRAMS   *        TOTAL        HF       INT
 CPU TIMES  *         7.55      1.40      6.08
 REAL TIME  *         8.84 SEC
 DISK USED  *         1.37 GB      
 SF USED    *         0.06 MB      
 GA USED    *         0.00 MB       (max)       0.00 MB       (current)
 **********************************************************************************************************************************


1PROGRAM * CCSD (Closed-shell coupled cluster)     Authors: C. Hampel, H.-J. Werner, 1991, M. Deegan, P.J. Knowles, 1992

                                  CCSD-F12 implementation by  H.-J. Werner, 2007

                   Density fitting integral evaluation by F.R. Manby, 2003,2007, G. Knizia, 2010

 Basis set CC-PVTZ/JKFIT generated.      Number of basis functions:   376 
 Basis set AUG-CC-PVTZ/MP2FIT generated. Number of basis functions:   516 

 Convergence thresholds:  THRVAR = 1.00D-08  THRDEN = 1.00D-06

 CCSD(T)     terms to be evaluated (factor= 1.000)


 Number of core orbitals:           4 (   3   1   0   0 )
 Number of closed-shell orbitals:  12 (   5   4   2   1 )
 Number of external orbitals:     214 (  76  54  52  32 )

 Molecular orbitals read from record     2100.2  Type=RHF/CANONICAL (state 1.1)

 MP2-F12 correlation treatment (H.-J. Werner, 2006)
 --------------------------------------------------

 Using MP2-F12 with ansatz 3C(FIX)

 Using projected zeroth-order Hamiltonian (+Z)

 FOCKRIB=T FOCKRIC=T FOCKRIP=T CABSP=T CABSA=T CABSK=T CABSF=T GBC=F EBC=F DMAT=T NOFIK=T NOPAO=1 SOLVE=-1  USEPAO=0
 EXCH_A= T EXCH_B= F EXCH_C= F EXCH_P= F
 
 Geminal basis:    OPTFULL  GEM_TYPE=SLATER  BETA=1.0  NGEM=6

 Optimizing Gaussian exponents for each gem_beta

 Geminal optimization for beta= 1.0000
 Weight function:   m=0, omega= 1.4646

 Augmented Hessian optimization of geminal fit. Trust ratio= 0.40000
 Convergence reached after   2 iterations. Final gradient= 8.24D-16, Step= 4.32D-06, Delta= 1.28D-09
 
 Alpha:                 0.19532     0.81920     2.85917     9.50073    35.69989   197.79328
 Coeff:                 0.27070     0.30552     0.18297     0.10986     0.06810     0.04224
 

 Symmetry turned off. Reference energy:       -263.771147712815

 All pairs explicitly correlated. Number of r12-pairs:           78
 
 AO(A)-basis ORBITAL           loaded. Number of functions:     230
 RI(R)-basis CC-PVTZ/JKFIT     loaded. Number of functions:     376
 DF-basis CC-PVTZ/JKFIT        loaded. Number of functions:     376

 Screening thresholds:   THRAO=  1.00D-10  THRMO=  1.00D-09  THRPROD=  1.00D-09
                         THRSW=  1.00D-05  THROV=  1.00D-12  THRF12=   1.00D-08

 CPU time for Fock operators                      1.10 sec
 
 Construction of ABS:
 Smallest eigenvalue of S          2.51E-04  (threshold= 1.00E-08)
 Ratio eigmin/eigmax               1.79E-06  (threshold= 1.00E-09)
 Smallest eigenvalue of S kept     2.51E-04  (threshold= 2.51E-04, 0 functions deleted, 376 kept)
 
 Construction of CABS:
 Smallest eigenvalue of S          2.27E-08  (threshold= 1.00E-08)
 Ratio eigmin/eigmax               2.27E-08  (threshold= 1.00E-09)
 Smallest eigenvalue of S kept     2.27E-08  (threshold= 2.27E-08, 0 functions deleted, 376 kept)
 
 CPU time for CABS singles                        0.18 sec

 CABS-singles contribution of  -0.01595161 patched into reference energy.
 New reference energy        -263.78709933
 
 AO(A)-basis ORBITAL           loaded. Number of functions:     230
 RI(R)-basis CC-PVTZ/JKFIT     loaded. Number of functions:     376
 DF-basis AUG-CC-PVTZ/MP2FIT   loaded. Number of functions:     516

 Screening thresholds:   THRAO=  1.00D-10  THRMO=  1.00D-09  THRPROD=  1.00D-09
                         THRSW=  1.00D-05  THROV=  1.00D-12  THRF12=   1.00D-08

 CPU time for 3-index integral evaluation         3.24 sec
 CPU time for first  half transformation          0.34 sec ( 8767.8 MFLOP/sec)
 CPU time for second half transformation          0.05 sec ( 2289.3 MFLOP/sec)
 CPU time for sorting                             0.16 sec
 CPU time for fitting                             0.05 sec (27861.0 MFLOP/sec)
 CPU time for tilde quantities                    0.07 sec (26412.6 MFLOP/sec)
 CPU time for assembly                            0.88 sec (26850.4 MFLOP/sec)
 CPU time for tranop_f12                          0.95 sec (31711.9 MFLOP/sec)
 CPU time for f12 integrals (total)               7.97 sec
 F12-matrices built in  3 passes.
 F12-matrices built in  3 passes.
 F12-matrices built in  3 passes.
 F12-matrices built in  3 passes.
 FC-matrix built in  3 passes.
 CPU time for f12 matrices (total)                0.55 sec

 Diagonal F12 approximation with fixed coefficients:  TSING= 0.500,  TTRIP= 0.250 (scaled by -1/beta)

 DF-MP2-F12 energy corrections:
 ------------------------------
 Approx.                                    Singlet             Triplet             Total
 DF-MP2-F12/3*C(DX,FIX)                -0.097345537884     -0.016974692282     -0.114320230166
 DF-MP2-F12/3*C(FIX)                   -0.079774378134     -0.013456479631     -0.093230857764
 DF-MP2-F12/3C(FIX)                    -0.080145870018     -0.013492066869     -0.093637936887

 DF-MP2-F12 correlation energies:
 --------------------------------
 Approx.                                    Singlet             Triplet             Ecorr            Total Energy
 DF-MP2                                -0.537924820545     -0.344298816246     -0.882223636791   -264.669322962588
 DF-MP2-F12/3*C(DX,FIX)                -0.635270358429     -0.361273508528     -0.996543866956   -264.783643192754
 DF-MP2-F12/3*C(FIX)                   -0.617699198678     -0.357755295876     -0.975454494555   -264.762553820352
 DF-MP2-F12/3C(FIX)                    -0.618070690562     -0.357790883115     -0.975861573678   -264.762960899475

 SCS-DF-MP2 energies (F_SING= 1.20000  F_TRIP= 0.62222  F_PARALLEL= 0.33333):
 ----------------------------------------------------------------------------
 SCS-DF-MP2                            -0.859740159207   -264.646839485004
 SCS-DF-MP2-F12/3*C(DX,FIX)            -0.987116835421   -264.774216161218
 SCS-DF-MP2-F12/3*C(FIX)               -0.963842333626   -264.750941659423
 SCS-DF-MP2-F12/3C(FIX)                -0.964310267058   -264.751409592855

 Symmetry restored.
 Symmetry transformation completed.

 Number of N-1 electron functions:              12
 Number of N-2 electron functions:              78
 Number of singly external CSFs:               732
 Number of doubly external CSFs:            836016
 Total number of CSFs:                      836749

 Pair and operator lists are different

 Length of J-op  integral file:             462.26 MB
 Length of K-op  integral file:             502.03 MB
 Length of 3-ext integral record:             0.00 MB

 Memory could be reduced to 38.69 Mwords without degradation in triples

 Integral transformation finished. Total CPU:   1.52 sec, npass=  1  Memory used:   6.07 MW

 Reference energy:                   -263.78709933

 Adding F12 terms to K(Cij), methodcc=6,  factor=1.0

 ITER.      SQ.NORM     CORR.ENERGY   TOTAL ENERGY   ENERGY CHANGE        DEN1      VAR(S)    VAR(P)  DIIS     TIME
   1      1.20218028    -0.86410482  -264.65120414     0.01813234     0.04670008  0.72D-02  0.55D-02  1  1    12.68
   2      1.21653760    -0.85992910  -264.64702843     0.00417572    -0.02019840  0.87D-04  0.59D-03  2  2    13.70
   3      1.22189092    -0.86004303  -264.64714235    -0.00011393    -0.00232020  0.13D-03  0.32D-04  3  3    14.71
   4      1.22470915    -0.85991462  -264.64701395     0.00012841    -0.00141408  0.78D-05  0.41D-05  4  4    15.73
   5      1.22574822    -0.85987777  -264.64697710     0.00003685    -0.00036563  0.59D-06  0.29D-06  5  5    16.76
   6      1.22591405    -0.85985073  -264.64695005     0.00002705    -0.00000826  0.43D-07  0.24D-07  6  6    17.84
   7      1.22594513    -0.85984824  -264.64694756     0.00000249    -0.00000641  0.35D-08  0.41D-08  6  4    18.84
   8      1.22594614    -0.85984768  -264.64694701     0.00000056     0.00000181  0.43D-09  0.30D-09  6  1    19.87
   9      1.22594682    -0.85984775  -264.64694708    -0.00000007     0.00000058  0.36D-10  0.25D-10  6  2    20.90

 Norm of t1 vector:      0.10647271      S-energy:    -0.00000005      T1 diagnostic:  0.01536801
                                                                       D1 diagnostic:  0.04571797

 Adding energy correction from Wij-K(Fij), methodcc=6  factor=1.0
 
  CCSD correlation energy              -0.859847750900
  MP2-F12 correction (uncoupled)       -0.092474959627
  C*T doubles correction               -0.001470673563
  f12b correction                       0.015411637951


 Total CPU time for triples:     30.08 sec


 RESULTS
 =======

  Reference energy                   -263.771147712815
  F12 singles correction               -0.015951612983

 F12 singles corrections added to reference energy

  New reference energy               -263.787099325797

  F12a singlet correction              -0.080341660012
  F12a triplet correction              -0.013603973179
  F12a total correction                -0.093945633191

 F12a corrections for ansatz F12/3C(FIX) added to CCSD energy
 
  CCSD-F12a singlet pair energy        -0.641839100996
  CCSD-F12a triplet pair energy        -0.311954236648
  CCSD-F12a correlation energy         -0.953793384091

  Triples (T) contribution             -0.037904139159
  Total correlation energy             -0.991697523250

  CCSD-F12a total energy             -264.740892709888
  CCSD[T]-F12a energy                -264.781341576814
  CCSD-T-F12a energy                 -264.777864008022
 !CCSD(T)-F12a total energy          -264.778796849047

 F12b corrections for ansatz F12/3C(FIX) added to CCSD(T)-F12a energy

  CCSD-F12b singlet pair energy        -0.627658404728
  CCSD-F12b triplet pair energy        -0.310723294965
  CCSD-F12b correlation energy         -0.938381746139

  Triples (T) contribution             -0.037904139159
  Total correlation energy             -0.976285885298

  CCSD-F12b total energy             -264.725481071937
  CCSD[T]-F12b energy                -264.765929938863
  CCSD-T-F12b energy                 -264.762452370071
 !CCSD(T)-F12b total energy          -264.763385211096

 Timing summary (sec):

 STEP                 CPU(USER)    SYS     CPU(TOT)    WALL
 Transformation          1.53      0.23      1.76      1.75
 CCSD iterations         9.19      0.72      9.91      9.90
 Triples                30.08      0.84     30.92     31.30
 MP2-F12                10.19      1.27     11.46     11.47
 F12b energy             0.63      0.01      0.64      0.64

 Program statistics:

 Available memory in ccsd:                99998934
 Min. memory needed in ccsd:               2244783
 Max. memory used in ccsd:                 3005571
 Max. memory used in cckext:               2769663 (10 integral passes)



 **********************************************************************************************************************************
 DATASETS  * FILE   NREC   LENGTH (MB)   RECORD NAMES
              1      20      137.19       500      610      700      900      950      970     1000      129      960     1100   
                                          VAR    BASINP    GEOM    SYMINP    ZMAT    AOBASIS   BASIS     P2S    ABASIS      S 
                                         1400     1410     1200     1210     1080     1600     1650     1700      960(1)  1380   
                                           T        V       H0       H01     AOSYM     SMH    MOLCAS    OPER    ABASIS    JKOP   

              2       5        0.97       700     1000     2100     7360     7350   
                                         GEOM     BASIS     RHF    F12ABS    EF12   

 PROGRAMS   *        TOTAL   CCSD(T)        HF       INT
 CPU TIMES  *        59.29     51.74      1.40      6.08
 REAL TIME  *        64.17 SEC
 DISK USED  *         1.59 GB      
 SF USED    *         1.34 GB      
 GA USED    *         2.40 MB       (max)       0.00 MB       (current)
 **********************************************************************************************************************************

     CCSD(T)-F12        HF-SCF  
   -264.76338521   -263.77114771
 **********************************************************************************************************************************
 Variable memory released
