
 Primary working directories    : /scratch/kee
 Secondary working directories  : /scratch/kee
 Wavefunction directory         : /home/kee/wfu/
 Main file repository           : /scratch/kee/

 ARCHNAME  : Linux/x86_64
 FC        : /opt/intel/composer_xe_2015.0.090/bin/intel64/ifort
 FCVERSION : 15.0.0
 BLASLIB   : -L/opt/intel/mkl/lib/intel64 -lmkl_intel_ilp64 -lmkl_sequential -lmkl_core
 id        : emory

 Nodes     nprocs
 node4        3
 Number of processes for MPI-2 version of Molpro:   nprocs(total)=    4   nprocs(compute)=    3   nprocs(helper)=    1
 ga_uses_ma=false, calling ma_init with nominal heap.
 GA-space will be limited to   8.0 MW (determined by -G option)

 Using customized tuning parameters: mindgm=7; mindgv=32; mindgc=1; mindgr=1; noblas=0; mincuda=1000; minvec=7
 default implementation of scratch files=sf  

 ***,co2h2o
 memory,100,m
 basis avtz
 geomtype = xyz
 geometry = {
 6
       0.00000000
 O     0.00351000    1.16210700    0.00000000
 O     0.00351000   -1.16210700    0.00000000
 O     3.46968000    0.00000000    0.00000000
 H     4.05589800    0.00000000    0.75853100
 H     4.05589800    0.00000000   -0.75853100
 C     0.01968000    0.00000000    0.00000000
 }
 hf
 ccsd(t)-f12
 ---

 Variables initialized (665), CPU time= 0.01 sec
 Commands  initialized (462), CPU time= 0.00 sec, 486 directives.
 Default parameters read. Elapsed time= 0.03 sec

 Checking input...
 Passed
1


                                         ***  PROGRAM SYSTEM MOLPRO  ***
                         Copyright, University College Cardiff Consultants Limited, 2008

                                    Version 2010.1 linked 9 Dec 2014 15:06:28 


 **********************************************************************************************************************************
 LABEL *   co2h2o                                                                        
 Linux-2.6.32-504.el6.x86_64/node4(x86_64) 64 bit mpp version                            DATE: 12-Dec-16          TIME: 15:08:14  
 **********************************************************************************************************************************

 Patch level:      19
 **********************************************************************************************************************************

 Variable memory set to  100000000 words,  buffer space   230000 words

 SETTING BASIS          =    AVTZ
 SETTING GEOMTYPE       =    XYZ

Geometry recognized as XYZ



 Recomputing integrals since basis changed


 Using spherical harmonics

 Library entry O      S aug-cc-pVTZ          selected for orbital group  1
 Library entry O      P aug-cc-pVTZ          selected for orbital group  1
 Library entry O      D aug-cc-pVTZ          selected for orbital group  1
 Library entry O      F aug-cc-pVTZ          selected for orbital group  1
 Library entry H      S aug-cc-pVTZ          selected for orbital group  2
 Library entry H      P aug-cc-pVTZ          selected for orbital group  2
 Library entry H      D aug-cc-pVTZ          selected for orbital group  2
 Library entry C      S aug-cc-pVTZ          selected for orbital group  3
 Library entry C      P aug-cc-pVTZ          selected for orbital group  3
 Library entry C      D aug-cc-pVTZ          selected for orbital group  3
 Library entry C      F aug-cc-pVTZ          selected for orbital group  3

1PROGRAM * SEWARD (Integral evaluation for generally contracted gaussian basis sets)     Author: Roland Lindh, 1990

 Geometry written to block  1 of record 700


 Point group  C2v 



 ATOMIC COORDINATES

 NR  ATOM    CHARGE       X              Y              Z

   1  O       8.00    0.006632939    2.196063965    0.000000000
   2  O       8.00    0.006632939   -2.196063965    0.000000000
   3  O       8.00    6.556744964    0.000000000    0.000000000
   4  H       1.00    7.664536437    0.000000000    1.433415852
   5  H       1.00    7.664536437    0.000000000   -1.433415852
   6  C       6.00    0.037189810    0.000000000    0.000000000

 Bond lengths in Bohr (Angstrom)

 1-6  2.196276545  2-6  2.196276545  3-4  1.811596797  3-5  1.811596797
     (1.162219492)     (1.162219492)     (0.958655737)     (0.958655737)

 Bond angles

  1-6-2  178.40563223   4-3-5  104.60391356

 NUCLEAR CHARGE:                   32
 NUMBER OF PRIMITIVE AOS:         322
 NUMBER OF SYMMETRY AOS:          282
 NUMBER OF CONTRACTIONS:          230   (  84A1  +  59B1  +  54B2  +  33A2  )
 NUMBER OF CORE ORBITALS:           4   (   3A1  +   1B1  +   0B2  +   0A2  )
 NUMBER OF VALENCE ORBITALS:       18   (   8A1  +   5B1  +   4B2  +   1A2  )


 NUCLEAR REPULSION ENERGY   98.85269694


 Eigenvalues of metric

         1 0.314E-03 0.377E-03 0.889E-03 0.140E-02 0.226E-02 0.315E-02 0.327E-02 0.390E-02
         2 0.346E-03 0.876E-03 0.174E-02 0.317E-02 0.500E-02 0.697E-02 0.149E-01 0.207E-01
         3 0.373E-03 0.161E-02 0.314E-02 0.419E-02 0.617E-02 0.884E-02 0.132E-01 0.144E-01
         4 0.347E-02 0.124E-01 0.295E-01 0.361E-01 0.555E-01 0.682E-01 0.107E+00 0.140E+00


 Contracted 2-electron integrals neglected if value below      1.0D-11
 AO integral compression algorithm  1   Integral accuracy      1.0D-11

     352.322 MB (compressed) written to integral file ( 39.5%)

     Node minimum: 108.528 MB, node maximum: 131.072 MB


 NUMBER OF SORTED TWO-ELECTRON INTEGRALS:   29979201.     BUFFER LENGTH:  32768
 NUMBER OF SEGMENTS:   2  SEGMENT LENGTH:   15996954      RECORD LENGTH: 524288

 Memory used in sort:      16.55 MW

 SORT1 READ   111555100. AND WROTE    25005928. INTEGRALS IN     72 RECORDS. CPU TIME:     2.49 SEC, REAL TIME:     2.79 SEC
 SORT2 READ    75152891. AND WROTE    89930217. INTEGRALS IN   1242 RECORDS. CPU TIME:     0.69 SEC, REAL TIME:     0.93 SEC

 Node minimum:    29974277.  Node maximum:    29979201. integrals

 OPERATOR DM      FOR CENTER  0  COORDINATES:    0.000000    0.000000    0.000000


 **********************************************************************************************************************************
 DATASETS  * FILE   NREC   LENGTH (MB)   RECORD NAMES
              1      18        3.23       500      610      700      900      950      970     1000      129      960     1100   
                                          VAR    BASINP    GEOM    SYMINP    ZMAT    AOBASIS   BASIS     P2S    ABASIS      S 
                                         1400     1410     1200     1210     1080     1600     1650     1700   
                                           T        V       H0       H01     AOSYM     SMH    MOLCAS    OPER   

 PROGRAMS   *        TOTAL       INT
 CPU TIMES  *         5.52      5.45
 REAL TIME  *         6.23 SEC
 DISK USED  *         1.24 GB      
 GA USED    *         0.00 MB       (max)       0.00 MB       (current)
 **********************************************************************************************************************************

1PROGRAM * RHF-SCF (CLOSED SHELL)       Authors: W. Meyer, H.-J. Werner


 NUMBER OF ELECTRONS:      16+   16-
 CONVERGENCE THRESHOLDS:    1.00E-05 (Density)    1.00E-07 (Energy)
 MAX. NUMBER OF ITERATIONS:       60
 INTERPOLATION TYPE:            DIIS
 INTERPOLATION STEPS:              2 (START)      1 (STEP)
 LEVEL SHIFTS:                  0.00 (CLOSED)  0.00 (OPEN) 



 Orbital guess generated from atomic densities. Full valence occupancy:   11   6   4   1

 Molecular orbital dump at record        2100.2

 Initial alpha occupancy:   8   5   2   1
 Initial beta  occupancy:   8   5   2   1
 Wave function symmetry:    1

 ITERATION    DDIFF          GRAD             ENERGY        2-EL.EN.            DIPOLE MOMENTS         DIIS
    1      0.000D+00      0.000D+00      -263.66464900    393.881087    1.18674    0.00000    0.00000    0
    2      0.000D+00      0.879D-02      -263.72911768    389.149185    0.78894    0.00000    0.00000    1
    3      0.141D-01      0.592D-02      -263.77066727    391.692595    0.87989    0.00000    0.00000    2
    4      0.578D-02      0.570D-03      -263.77116222    391.495958    0.88226    0.00000    0.00000    3
    5      0.697D-03      0.167D-03      -263.77122056    391.489839    0.87769    0.00000    0.00000    4
    6      0.260D-03      0.680D-04      -263.77122801    391.506193    0.87854    0.00000    0.00000    5
    7      0.869D-04      0.162D-04      -263.77122875    391.497598    0.87815    0.00000    0.00000    6
    8      0.283D-04      0.358D-05      -263.77122880    391.498941    0.87817    0.00000    0.00000    7
    9      0.765D-05      0.120D-05      -263.77122880    391.498717    0.87814    0.00000    0.00000    0

 Final occupancy:   8   5   2   1

 !RHF STATE 1.1 Energy               -263.771228799177
 Nuclear energy                        98.85269694
 One-electron energy                 -558.37328404
 Two-electron energy                  195.74935830
 Virial quotient                       -1.00183798
 !RHF STATE 1.1 Dipole moment           0.87814106     0.00000000     0.00000000
 Dipole moment /Debye                   2.23186576     0.00000000     0.00000000

 Orbital energies:

         1.1          2.1          3.1          4.1          5.1          6.1          7.1          8.1          9.1         10.1
    -20.637309   -20.574058   -11.446732    -1.515017    -1.359740    -0.785958    -0.698876    -0.592647     0.026320     0.062617

         1.2          2.2          3.2          4.2          5.2          6.2          7.2
    -20.637354    -1.462053    -0.728357    -0.529493    -0.516772     0.086611     0.162952

         1.3          2.3          3.3          4.3
     -0.724150    -0.699457     0.045665     0.087808

         1.4          2.4          3.4
     -0.529310     0.169840     0.267435


 **********************************************************************************************************************************
 DATASETS  * FILE   NREC   LENGTH (MB)   RECORD NAMES
              1      18        3.25       500      610      700      900      950      970     1000      129      960     1100   
                                          VAR    BASINP    GEOM    SYMINP    ZMAT    AOBASIS   BASIS     P2S    ABASIS      S 
                                         1400     1410     1200     1210     1080     1600     1650     1700   
                                           T        V       H0       H01     AOSYM     SMH    MOLCAS    OPER   

              2       3        0.67       700     1000     2100   
                                         GEOM     BASIS     RHF  

 PROGRAMS   *        TOTAL        HF       INT
 CPU TIMES  *         6.95      1.42      5.45
 REAL TIME  *         7.77 SEC
 DISK USED  *         1.26 GB      
 SF USED    *         0.06 MB      
 GA USED    *         0.00 MB       (max)       0.00 MB       (current)
 **********************************************************************************************************************************


1PROGRAM * CCSD (Closed-shell coupled cluster)     Authors: C. Hampel, H.-J. Werner, 1991, M. Deegan, P.J. Knowles, 1992

                                  CCSD-F12 implementation by  H.-J. Werner, 2007

                   Density fitting integral evaluation by F.R. Manby, 2003,2007, G. Knizia, 2010

 Basis set CC-PVTZ/JKFIT generated.      Number of basis functions:   376 
 Basis set AUG-CC-PVTZ/MP2FIT generated. Number of basis functions:   516 

 Convergence thresholds:  THRVAR = 1.00D-08  THRDEN = 1.00D-06

 CCSD(T)     terms to be evaluated (factor= 1.000)


 Number of core orbitals:           4 (   3   1   0   0 )
 Number of closed-shell orbitals:  12 (   5   4   2   1 )
 Number of external orbitals:     214 (  76  54  52  32 )

 Molecular orbitals read from record     2100.2  Type=RHF/CANONICAL (state 1.1)

 MP2-F12 correlation treatment (H.-J. Werner, 2006)
 --------------------------------------------------

 Using MP2-F12 with ansatz 3C(FIX)

 Using projected zeroth-order Hamiltonian (+Z)

 FOCKRIB=T FOCKRIC=T FOCKRIP=T CABSP=T CABSA=T CABSK=T CABSF=T GBC=F EBC=F DMAT=T NOFIK=T NOPAO=1 SOLVE=-1  USEPAO=0
 EXCH_A= T EXCH_B= F EXCH_C= F EXCH_P= F
 
 Geminal basis:    OPTFULL  GEM_TYPE=SLATER  BETA=1.0  NGEM=6

 Optimizing Gaussian exponents for each gem_beta

 Geminal optimization for beta= 1.0000
 Weight function:   m=0, omega= 1.4646

 Augmented Hessian optimization of geminal fit. Trust ratio= 0.40000
 Convergence reached after   2 iterations. Final gradient= 8.24D-16, Step= 4.32D-06, Delta= 1.28D-09
 
 Alpha:                 0.19532     0.81920     2.85917     9.50073    35.69989   197.79328
 Coeff:                 0.27070     0.30552     0.18297     0.10986     0.06810     0.04224
 

 Symmetry turned off. Reference energy:       -263.771228799177

 All pairs explicitly correlated. Number of r12-pairs:           78
 
 AO(A)-basis ORBITAL           loaded. Number of functions:     230
 RI(R)-basis CC-PVTZ/JKFIT     loaded. Number of functions:     376
 DF-basis CC-PVTZ/JKFIT        loaded. Number of functions:     376

 Screening thresholds:   THRAO=  1.00D-10  THRMO=  1.00D-09  THRPROD=  1.00D-09
                         THRSW=  1.00D-05  THROV=  1.00D-12  THRF12=   1.00D-08

 CPU time for Fock operators                      1.06 sec
 
 Construction of ABS:
 Smallest eigenvalue of S          2.56E-04  (threshold= 1.00E-08)
 Ratio eigmin/eigmax               1.82E-06  (threshold= 1.00E-09)
 Smallest eigenvalue of S kept     2.56E-04  (threshold= 2.56E-04, 0 functions deleted, 376 kept)
 
 Construction of CABS:
 Smallest eigenvalue of S          2.28E-08  (threshold= 1.00E-08)
 Ratio eigmin/eigmax               2.28E-08  (threshold= 1.00E-09)
 Smallest eigenvalue of S kept     2.28E-08  (threshold= 2.28E-08, 0 functions deleted, 376 kept)
 
 CPU time for CABS singles                        0.18 sec

 CABS-singles contribution of  -0.01592851 patched into reference energy.
 New reference energy        -263.78715731
 
 AO(A)-basis ORBITAL           loaded. Number of functions:     230
 RI(R)-basis CC-PVTZ/JKFIT     loaded. Number of functions:     376
 DF-basis AUG-CC-PVTZ/MP2FIT   loaded. Number of functions:     516

 Screening thresholds:   THRAO=  1.00D-10  THRMO=  1.00D-09  THRPROD=  1.00D-09
                         THRSW=  1.00D-05  THROV=  1.00D-12  THRF12=   1.00D-08

 CPU time for 3-index integral evaluation         3.03 sec
 CPU time for first  half transformation          0.32 sec ( 9696.2 MFLOP/sec)
 CPU time for second half transformation          0.04 sec ( 2601.0 MFLOP/sec)
 CPU time for sorting                             0.17 sec
 CPU time for fitting                             0.05 sec (27861.0 MFLOP/sec)
 CPU time for tilde quantities                    0.07 sec (26412.6 MFLOP/sec)
 CPU time for assembly                            0.81 sec (29170.2 MFLOP/sec)
 CPU time for tranop_f12                          2.04 sec (14691.1 MFLOP/sec)
 CPU time for f12 integrals (total)               8.68 sec
 F12-matrices built in  3 passes.
 F12-matrices built in  3 passes.
 F12-matrices built in  3 passes.
 F12-matrices built in  3 passes.
 FC-matrix built in  3 passes.
 CPU time for f12 matrices (total)                0.55 sec

 Diagonal F12 approximation with fixed coefficients:  TSING= 0.500,  TTRIP= 0.250 (scaled by -1/beta)

 DF-MP2-F12 energy corrections:
 ------------------------------
 Approx.                                    Singlet             Triplet             Total
 DF-MP2-F12/3*C(DX,FIX)                -0.097380290966     -0.016941071797     -0.114321362763
 DF-MP2-F12/3*C(FIX)                   -0.079809750984     -0.013413041000     -0.093222791984
 DF-MP2-F12/3C(FIX)                    -0.080175941635     -0.013441449039     -0.093617390673

 DF-MP2-F12 correlation energies:
 --------------------------------
 Approx.                                    Singlet             Triplet             Ecorr            Total Energy
 DF-MP2                                -0.537770404379     -0.343502021900     -0.881272426279   -264.668429733426
 DF-MP2-F12/3*C(DX,FIX)                -0.635150695345     -0.360443093697     -0.995593789042   -264.782751096189
 DF-MP2-F12/3*C(FIX)                   -0.617580155363     -0.356915062900     -0.974495218263   -264.761652525410
 DF-MP2-F12/3C(FIX)                    -0.617946346013     -0.356943470939     -0.974889816952   -264.762047124099

 SCS-DF-MP2 energies (F_SING= 1.20000  F_TRIP= 0.62222  F_PARALLEL= 0.33333):
 ----------------------------------------------------------------------------
 SCS-DF-MP2                            -0.859059076659   -264.646216383806
 SCS-DF-MP2-F12/3*C(DX,FIX)            -0.986456537159   -264.773613844306
 SCS-DF-MP2-F12/3*C(FIX)               -0.963176670018   -264.750333977165
 SCS-DF-MP2-F12/3C(FIX)                -0.963633774911   -264.750791082059

 Symmetry restored.
 Symmetry transformation completed.

 Number of N-1 electron functions:              12
 Number of N-2 electron functions:              78
 Number of singly external CSFs:               732
 Number of doubly external CSFs:            836016
 Total number of CSFs:                      836749

 Pair and operator lists are different

 Length of J-op  integral file:             462.26 MB
 Length of K-op  integral file:             502.03 MB
 Length of 3-ext integral record:             0.00 MB

 Memory could be reduced to 38.69 Mwords without degradation in triples

 Integral transformation finished. Total CPU:   2.64 sec, npass=  1  Memory used:   6.07 MW

 Reference energy:                   -263.78715731

 Adding F12 terms to K(Cij), methodcc=6,  factor=1.0

 ITER.      SQ.NORM     CORR.ENERGY   TOTAL ENERGY   ENERGY CHANGE        DEN1      VAR(S)    VAR(P)  DIIS     TIME
   1      1.20216632    -0.86321776  -264.65037506     0.01806975     0.04665271  0.72D-02  0.55D-02  1  1    14.52
   2      1.21648520    -0.85902356  -264.64618087     0.00419419    -0.02014603  0.87D-04  0.59D-03  2  2    15.16
   3      1.22185584    -0.85912813  -264.64628544    -0.00010457    -0.00236088  0.13D-03  0.32D-04  3  3    16.22
   4      1.22466724    -0.85900055  -264.64615786     0.00012758    -0.00141353  0.77D-05  0.41D-05  4  4    17.27
   5      1.22570061    -0.85896317  -264.64612047     0.00003738    -0.00036611  0.57D-06  0.28D-06  5  5    18.32
   6      1.22586376    -0.85893624  -264.64609355     0.00002692    -0.00000812  0.41D-07  0.24D-07  6  6    19.25
   7      1.22589355    -0.85893381  -264.64609112     0.00000243    -0.00000627  0.28D-08  0.40D-08  6  4    20.17
   8      1.22589403    -0.85893330  -264.64609061     0.00000051     0.00000190  0.40D-09  0.28D-09  6  1    21.10
   9      1.22589465    -0.85893337  -264.64609068    -0.00000007     0.00000057  0.29D-10  0.23D-10  6  2    22.04

 Norm of t1 vector:      0.10615544      S-energy:    -0.00000004      T1 diagnostic:  0.01532222
                                                                       D1 diagnostic:  0.04525402

 Adding energy correction from Wij-K(Fij), methodcc=6  factor=1.0
 
  CCSD correlation energy              -0.858933369616
  MP2-F12 correction (uncoupled)       -0.092458144474
  C*T doubles correction               -0.001472159195
  f12b correction                       0.015406058631


 Total CPU time for triples:     25.19 sec


 RESULTS
 =======

  Reference energy                   -263.771228799177
  F12 singles correction               -0.015928507970

 F12 singles corrections added to reference energy

  New reference energy               -263.787157307147

  F12a singlet correction              -0.080373074494
  F12a triplet correction              -0.013557229174
  F12a total correction                -0.093930303668

 F12a corrections for ansatz F12/3C(FIX) added to CCSD energy
 
  CCSD-F12a singlet pair energy        -0.641831442787
  CCSD-F12a triplet pair energy        -0.311032192802
  CCSD-F12a correlation energy         -0.952863673284

  Triples (T) contribution             -0.037736507206
  Total correlation energy             -0.990600180490

  CCSD-F12a total energy             -264.740020980431
  CCSD[T]-F12a energy                -264.780298867757
  CCSD-T-F12a energy                 -264.776822992164
 !CCSD(T)-F12a total energy          -264.777757487637

 F12b corrections for ansatz F12/3C(FIX) added to CCSD(T)-F12a energy

  CCSD-F12b singlet pair energy        -0.627650874154
  CCSD-F12b triplet pair energy        -0.309806702804
  CCSD-F12b correlation energy         -0.937457614653

  Triples (T) contribution             -0.037736507206
  Total correlation energy             -0.975194121859

  CCSD-F12b total energy             -264.724614921800
  CCSD[T]-F12b energy                -264.764892809127
  CCSD-T-F12b energy                 -264.761416933533
 !CCSD(T)-F12b total energy          -264.762351429006

 Timing summary (sec):

 STEP                 CPU(USER)    SYS     CPU(TOT)    WALL
 Transformation          2.65      0.24      2.89      3.00
 CCSD iterations         8.52      2.02     10.54     12.56
 Triples                25.19      0.82     26.01     26.34
 MP2-F12                10.87      1.27     12.14     13.38
 F12b energy             0.57      0.01      0.58      0.57

 Program statistics:

 Available memory in ccsd:                99998934
 Min. memory needed in ccsd:               2244783
 Max. memory used in ccsd:                 3005571
 Max. memory used in cckext:               2769663 (10 integral passes)



 **********************************************************************************************************************************
 DATASETS  * FILE   NREC   LENGTH (MB)   RECORD NAMES
              1      20      137.19       500      610      700      900      950      970     1000      129      960     1100   
                                          VAR    BASINP    GEOM    SYMINP    ZMAT    AOBASIS   BASIS     P2S    ABASIS      S 
                                         1400     1410     1200     1210     1080     1600     1650     1700      960(1)  1380   
                                           T        V       H0       H01     AOSYM     SMH    MOLCAS    OPER    ABASIS    JKOP   

              2       5        0.97       700     1000     2100     7360     7350   
                                         GEOM     BASIS     RHF    F12ABS    EF12   

 PROGRAMS   *        TOTAL   CCSD(T)        HF       INT
 CPU TIMES  *        54.78     47.83      1.42      5.45
 REAL TIME  *        63.86 SEC
 DISK USED  *         1.48 GB      
 SF USED    *         1.34 GB      
 GA USED    *         2.40 MB       (max)       0.00 MB       (current)
 **********************************************************************************************************************************

     CCSD(T)-F12        HF-SCF  
   -264.76235143   -263.77122880
 **********************************************************************************************************************************
 Variable memory released
