
 Primary working directories    : /scratch/kee
 Secondary working directories  : /scratch/kee
 Wavefunction directory         : /home/kee/wfu/
 Main file repository           : /scratch/kee/

 ARCHNAME  : Linux/x86_64
 FC        : /opt/intel/composer_xe_2015.0.090/bin/intel64/ifort
 FCVERSION : 15.0.0
 BLASLIB   : -L/opt/intel/mkl/lib/intel64 -lmkl_intel_ilp64 -lmkl_sequential -lmkl_core
 id        : emory

 Nodes     nprocs
 node4        3
 Number of processes for MPI-2 version of Molpro:   nprocs(total)=    4   nprocs(compute)=    3   nprocs(helper)=    1
 ga_uses_ma=false, calling ma_init with nominal heap.
 GA-space will be limited to   8.0 MW (determined by -G option)

 Using customized tuning parameters: mindgm=7; mindgv=32; mindgc=1; mindgr=1; noblas=0; mincuda=1000; minvec=7
 default implementation of scratch files=sf  

 ***,co2h2o
 memory,100,m
 basis avtz
 geomtype = xyz
 geometry = {
 6
       0.00000000
 O     0.00351000    1.16210700    0.00000000
 O     0.00351000   -1.16210700    0.00000000
 O     3.16968000    0.00000000    0.00000000
 H     3.75589800    0.00000000    0.75853100
 H     3.75589800    0.00000000   -0.75853100
 C     0.01968000    0.00000000    0.00000000
 }
 hf
 ccsd(t)-f12
 ---

 Variables initialized (665), CPU time= 0.01 sec
 Commands  initialized (462), CPU time= 0.01 sec, 486 directives.
 Default parameters read. Elapsed time= 0.04 sec

 Checking input...
 Passed
1


                                         ***  PROGRAM SYSTEM MOLPRO  ***
                         Copyright, University College Cardiff Consultants Limited, 2008

                                    Version 2010.1 linked 9 Dec 2014 15:06:28 


 **********************************************************************************************************************************
 LABEL *   co2h2o                                                                        
 Linux-2.6.32-504.el6.x86_64/node4(x86_64) 64 bit mpp version                            DATE: 12-Dec-16          TIME: 15:00:32  
 **********************************************************************************************************************************

 Patch level:      19
 **********************************************************************************************************************************

 Variable memory set to  100000000 words,  buffer space   230000 words

 SETTING BASIS          =    AVTZ
 SETTING GEOMTYPE       =    XYZ

Geometry recognized as XYZ



 Recomputing integrals since basis changed


 Using spherical harmonics

 Library entry O      S aug-cc-pVTZ          selected for orbital group  1
 Library entry O      P aug-cc-pVTZ          selected for orbital group  1
 Library entry O      D aug-cc-pVTZ          selected for orbital group  1
 Library entry O      F aug-cc-pVTZ          selected for orbital group  1
 Library entry H      S aug-cc-pVTZ          selected for orbital group  2
 Library entry H      P aug-cc-pVTZ          selected for orbital group  2
 Library entry H      D aug-cc-pVTZ          selected for orbital group  2
 Library entry C      S aug-cc-pVTZ          selected for orbital group  3
 Library entry C      P aug-cc-pVTZ          selected for orbital group  3
 Library entry C      D aug-cc-pVTZ          selected for orbital group  3
 Library entry C      F aug-cc-pVTZ          selected for orbital group  3

1PROGRAM * SEWARD (Integral evaluation for generally contracted gaussian basis sets)     Author: Roland Lindh, 1990

 Geometry written to block  1 of record 700


 Point group  C2v 



 ATOMIC COORDINATES

 NR  ATOM    CHARGE       X              Y              Z

   1  O       8.00    0.006632939    2.196063965    0.000000000
   2  O       8.00    0.006632939   -2.196063965    0.000000000
   3  O       8.00    5.989827124    0.000000000    0.000000000
   4  H       1.00    7.097618598    0.000000000    1.433415852
   5  H       1.00    7.097618598    0.000000000   -1.433415852
   6  C       6.00    0.037189810    0.000000000    0.000000000

 Bond lengths in Bohr (Angstrom)

 1-6  2.196276545  2-6  2.196276545  3-4  1.811596797  3-5  1.811596797
     (1.162219492)     (1.162219492)     (0.958655737)     (0.958655737)

 Bond angles

  1-6-2  178.40563223   4-3-5  104.60391356

 NUCLEAR CHARGE:                   32
 NUMBER OF PRIMITIVE AOS:         322
 NUMBER OF SYMMETRY AOS:          282
 NUMBER OF CONTRACTIONS:          230   (  84A1  +  59B1  +  54B2  +  33A2  )
 NUMBER OF CORE ORBITALS:           4   (   3A1  +   1B1  +   0B2  +   0A2  )
 NUMBER OF VALENCE ORBITALS:       18   (   8A1  +   5B1  +   4B2  +   1A2  )


 NUCLEAR REPULSION ENERGY  101.50774953


 Eigenvalues of metric

         1 0.286E-03 0.360E-03 0.886E-03 0.117E-02 0.194E-02 0.307E-02 0.324E-02 0.368E-02
         2 0.343E-03 0.849E-03 0.174E-02 0.317E-02 0.476E-02 0.676E-02 0.141E-01 0.207E-01
         3 0.353E-03 0.158E-02 0.313E-02 0.403E-02 0.616E-02 0.836E-02 0.129E-01 0.141E-01
         4 0.346E-02 0.123E-01 0.295E-01 0.360E-01 0.551E-01 0.685E-01 0.106E+00 0.140E+00


 Contracted 2-electron integrals neglected if value below      1.0D-11
 AO integral compression algorithm  1   Integral accuracy      1.0D-11

     374.342 MB (compressed) written to integral file ( 41.9%)

     Node minimum: 115.343 MB, node maximum: 138.936 MB


 NUMBER OF SORTED TWO-ELECTRON INTEGRALS:   29979201.     BUFFER LENGTH:  32768
 NUMBER OF SEGMENTS:   2  SEGMENT LENGTH:   15996954      RECORD LENGTH: 524288

 Memory used in sort:      16.55 MW

 SORT1 READ   111555100. AND WROTE    26237547. INTEGRALS IN     76 RECORDS. CPU TIME:     2.76 SEC, REAL TIME:     4.14 SEC
 SORT2 READ    78736822. AND WROTE    89930217. INTEGRALS IN   1590 RECORDS. CPU TIME:     1.22 SEC, REAL TIME:     1.66 SEC

 Node minimum:    29974277.  Node maximum:    29979201. integrals

 OPERATOR DM      FOR CENTER  0  COORDINATES:    0.000000    0.000000    0.000000


 **********************************************************************************************************************************
 DATASETS  * FILE   NREC   LENGTH (MB)   RECORD NAMES
              1      18        3.23       500      610      700      900      950      970     1000      129      960     1100   
                                          VAR    BASINP    GEOM    SYMINP    ZMAT    AOBASIS   BASIS     P2S    ABASIS      S 
                                         1400     1410     1200     1210     1080     1600     1650     1700   
                                           T        V       H0       H01     AOSYM     SMH    MOLCAS    OPER   

 PROGRAMS   *        TOTAL       INT
 CPU TIMES  *         6.47      6.37
 REAL TIME  *         8.52 SEC
 DISK USED  *         1.31 GB      
 GA USED    *         0.00 MB       (max)       0.00 MB       (current)
 **********************************************************************************************************************************

1PROGRAM * RHF-SCF (CLOSED SHELL)       Authors: W. Meyer, H.-J. Werner


 NUMBER OF ELECTRONS:      16+   16-
 CONVERGENCE THRESHOLDS:    1.00E-05 (Density)    1.00E-07 (Energy)
 MAX. NUMBER OF ITERATIONS:       60
 INTERPOLATION TYPE:            DIIS
 INTERPOLATION STEPS:              2 (START)      1 (STEP)
 LEVEL SHIFTS:                  0.00 (CLOSED)  0.00 (OPEN) 



 Orbital guess generated from atomic densities. Full valence occupancy:   11   6   4   1

 Molecular orbital dump at record        2100.2

 Initial alpha occupancy:   8   5   2   1
 Initial beta  occupancy:   8   5   2   1
 Wave function symmetry:    1

 ITERATION    DDIFF          GRAD             ENERGY        2-EL.EN.            DIPOLE MOMENTS         DIIS
    1      0.000D+00      0.000D+00      -263.66582484    399.302025    1.19512    0.00000    0.00000    0
    2      0.000D+00      0.876D-02      -263.72999445    394.564232    0.82275    0.00000    0.00000    1
    3      0.141D-01      0.587D-02      -263.77089586    397.083849    0.90330    0.00000    0.00000    2
    4      0.575D-02      0.571D-03      -263.77139150    396.894396    0.90482    0.00000    0.00000    3
    5      0.698D-03      0.168D-03      -263.77145004    396.884874    0.90022    0.00000    0.00000    4
    6      0.261D-03      0.687D-04      -263.77145762    396.901874    0.90106    0.00000    0.00000    5
    7      0.874D-04      0.161D-04      -263.77145836    396.893260    0.90067    0.00000    0.00000    6
    8      0.286D-04      0.357D-05      -263.77145841    396.894626    0.90070    0.00000    0.00000    7
    9      0.762D-05      0.120D-05      -263.77145841    396.894392    0.90068    0.00000    0.00000    0

 Final occupancy:   8   5   2   1

 !RHF STATE 1.1 Energy               -263.771458409392
 Nuclear energy                       101.50774953
 One-electron energy                 -563.72640370
 Two-electron energy                  198.44719576
 Virial quotient                       -1.00182341
 !RHF STATE 1.1 Dipole moment           0.90067643     0.00000000     0.00000000
 Dipole moment /Debye                   2.28914121     0.00000000     0.00000000

 Orbital energies:

         1.1          2.1          3.1          4.1          5.1          6.1          7.1          8.1          9.1         10.1
    -20.634246   -20.575671   -11.443964    -1.512077    -1.361719    -0.783242    -0.696584    -0.594621     0.025690     0.063984

         1.2          2.2          3.2          4.2          5.2          6.2          7.2
    -20.634292    -1.459142    -0.725683    -0.528336    -0.517179     0.086803     0.164957

         1.3          2.3          3.3          4.3
     -0.726093    -0.696625     0.045479     0.089145

         1.4          2.4          3.4
     -0.526531     0.169996     0.268961


 **********************************************************************************************************************************
 DATASETS  * FILE   NREC   LENGTH (MB)   RECORD NAMES
              1      18        3.25       500      610      700      900      950      970     1000      129      960     1100   
                                          VAR    BASINP    GEOM    SYMINP    ZMAT    AOBASIS   BASIS     P2S    ABASIS      S 
                                         1400     1410     1200     1210     1080     1600     1650     1700   
                                           T        V       H0       H01     AOSYM     SMH    MOLCAS    OPER   

              2       3        0.67       700     1000     2100   
                                         GEOM     BASIS     RHF  

 PROGRAMS   *        TOTAL        HF       INT
 CPU TIMES  *         7.93      1.46      6.37
 REAL TIME  *        10.14 SEC
 DISK USED  *         1.33 GB      
 SF USED    *         0.06 MB      
 GA USED    *         0.00 MB       (max)       0.00 MB       (current)
 **********************************************************************************************************************************


1PROGRAM * CCSD (Closed-shell coupled cluster)     Authors: C. Hampel, H.-J. Werner, 1991, M. Deegan, P.J. Knowles, 1992

                                  CCSD-F12 implementation by  H.-J. Werner, 2007

                   Density fitting integral evaluation by F.R. Manby, 2003,2007, G. Knizia, 2010

 Basis set CC-PVTZ/JKFIT generated.      Number of basis functions:   376 
 Basis set AUG-CC-PVTZ/MP2FIT generated. Number of basis functions:   516 

 Convergence thresholds:  THRVAR = 1.00D-08  THRDEN = 1.00D-06

 CCSD(T)     terms to be evaluated (factor= 1.000)


 Number of core orbitals:           4 (   3   1   0   0 )
 Number of closed-shell orbitals:  12 (   5   4   2   1 )
 Number of external orbitals:     214 (  76  54  52  32 )

 Molecular orbitals read from record     2100.2  Type=RHF/CANONICAL (state 1.1)

 MP2-F12 correlation treatment (H.-J. Werner, 2006)
 --------------------------------------------------

 Using MP2-F12 with ansatz 3C(FIX)

 Using projected zeroth-order Hamiltonian (+Z)

 FOCKRIB=T FOCKRIC=T FOCKRIP=T CABSP=T CABSA=T CABSK=T CABSF=T GBC=F EBC=F DMAT=T NOFIK=T NOPAO=1 SOLVE=-1  USEPAO=0
 EXCH_A= T EXCH_B= F EXCH_C= F EXCH_P= F
 
 Geminal basis:    OPTFULL  GEM_TYPE=SLATER  BETA=1.0  NGEM=6

 Optimizing Gaussian exponents for each gem_beta

 Geminal optimization for beta= 1.0000
 Weight function:   m=0, omega= 1.4646

 Augmented Hessian optimization of geminal fit. Trust ratio= 0.40000
 Convergence reached after   2 iterations. Final gradient= 8.24D-16, Step= 4.32D-06, Delta= 1.28D-09
 
 Alpha:                 0.19532     0.81920     2.85917     9.50073    35.69989   197.79328
 Coeff:                 0.27070     0.30552     0.18297     0.10986     0.06810     0.04224
 

 Symmetry turned off. Reference energy:       -263.771458409392

 All pairs explicitly correlated. Number of r12-pairs:           78
 
 AO(A)-basis ORBITAL           loaded. Number of functions:     230
 RI(R)-basis CC-PVTZ/JKFIT     loaded. Number of functions:     376
 DF-basis CC-PVTZ/JKFIT        loaded. Number of functions:     376

 Screening thresholds:   THRAO=  1.00D-10  THRMO=  1.00D-09  THRPROD=  1.00D-09
                         THRSW=  1.00D-05  THROV=  1.00D-12  THRF12=   1.00D-08

 CPU time for Fock operators                      1.05 sec
 
 Construction of ABS:
 Smallest eigenvalue of S          2.54E-04  (threshold= 1.00E-08)
 Ratio eigmin/eigmax               1.81E-06  (threshold= 1.00E-09)
 Smallest eigenvalue of S kept     2.54E-04  (threshold= 2.54E-04, 0 functions deleted, 376 kept)
 
 Construction of CABS:
 Smallest eigenvalue of S          2.28E-08  (threshold= 1.00E-08)
 Ratio eigmin/eigmax               2.28E-08  (threshold= 1.00E-09)
 Smallest eigenvalue of S kept     2.28E-08  (threshold= 2.28E-08, 0 functions deleted, 376 kept)
 
 CPU time for CABS singles                        0.18 sec

 CABS-singles contribution of  -0.01594013 patched into reference energy.
 New reference energy        -263.78739854
 
 AO(A)-basis ORBITAL           loaded. Number of functions:     230
 RI(R)-basis CC-PVTZ/JKFIT     loaded. Number of functions:     376
 DF-basis AUG-CC-PVTZ/MP2FIT   loaded. Number of functions:     516

 Screening thresholds:   THRAO=  1.00D-10  THRMO=  1.00D-09  THRPROD=  1.00D-09
                         THRSW=  1.00D-05  THROV=  1.00D-12  THRF12=   1.00D-08

 CPU time for 3-index integral evaluation         3.21 sec
 CPU time for first  half transformation          0.46 sec ( 6382.5 MFLOP/sec)
 CPU time for second half transformation          0.03 sec ( 3423.9 MFLOP/sec)
 CPU time for sorting                             0.28 sec
 CPU time for fitting                             0.06 sec (23217.5 MFLOP/sec)
 CPU time for tilde quantities                    0.08 sec (23217.5 MFLOP/sec)
 CPU time for assembly                            0.98 sec (23996.5 MFLOP/sec)
 CPU time for tranop_f12                          0.99 sec (30931.1 MFLOP/sec)
 CPU time for f12 integrals (total)               8.55 sec
 F12-matrices built in  3 passes.
 F12-matrices built in  3 passes.
 F12-matrices built in  3 passes.
 F12-matrices built in  3 passes.
 FC-matrix built in  3 passes.
 CPU time for f12 matrices (total)                0.68 sec

 Diagonal F12 approximation with fixed coefficients:  TSING= 0.500,  TTRIP= 0.250 (scaled by -1/beta)

 DF-MP2-F12 energy corrections:
 ------------------------------
 Approx.                                    Singlet             Triplet             Total
 DF-MP2-F12/3*C(DX,FIX)                -0.097357885812     -0.016954112453     -0.114311998265
 DF-MP2-F12/3*C(FIX)                   -0.079790194401     -0.013431795988     -0.093221990389
 DF-MP2-F12/3C(FIX)                    -0.080159685827     -0.013463801949     -0.093623487776

 DF-MP2-F12 correlation energies:
 --------------------------------
 Approx.                                    Singlet             Triplet             Ecorr            Total Energy
 DF-MP2                                -0.537836584814     -0.343834024942     -0.881670609756   -264.669069145238
 DF-MP2-F12/3*C(DX,FIX)                -0.635194470626     -0.360788137395     -0.995982608021   -264.783381143503
 DF-MP2-F12/3*C(FIX)                   -0.617626779215     -0.357265820930     -0.974892600145   -264.762291135628
 DF-MP2-F12/3C(FIX)                    -0.617996270641     -0.357297826891     -0.975294097532   -264.762692633014

 SCS-DF-MP2 energies (F_SING= 1.20000  F_TRIP= 0.62222  F_PARALLEL= 0.33333):
 ----------------------------------------------------------------------------
 SCS-DF-MP2                            -0.859345072851   -264.646743608334
 SCS-DF-MP2-F12/3*C(DX,FIX)            -0.986723761352   -264.774122296835
 SCS-DF-MP2-F12/3*C(FIX)               -0.963450868081   -264.750849403564
 SCS-DF-MP2-F12/3C(FIX)                -0.963914172612   -264.751312708095

 Symmetry restored.
 Symmetry transformation completed.

 Number of N-1 electron functions:              12
 Number of N-2 electron functions:              78
 Number of singly external CSFs:               732
 Number of doubly external CSFs:            836016
 Total number of CSFs:                      836749

 Pair and operator lists are different

 Length of J-op  integral file:             462.26 MB
 Length of K-op  integral file:             502.03 MB
 Length of 3-ext integral record:             0.00 MB

 Memory could be reduced to 38.69 Mwords without degradation in triples

 Integral transformation finished. Total CPU:   1.74 sec, npass=  1  Memory used:   6.07 MW

 Reference energy:                   -263.78739854

 Adding F12 terms to K(Cij), methodcc=6,  factor=1.0

 ITER.      SQ.NORM     CORR.ENERGY   TOTAL ENERGY   ENERGY CHANGE        DEN1      VAR(S)    VAR(P)  DIIS     TIME
   1      1.20218347    -0.86359359  -264.65099212     0.01809142     0.04666530  0.72D-02  0.55D-02  1  1    13.62
   2      1.21652362    -0.85940898  -264.64680752     0.00418461    -0.02017300  0.87D-04  0.59D-03  2  2    14.70
   3      1.22188372    -0.85951822  -264.64691676    -0.00010924    -0.00233903  0.13D-03  0.32D-04  3  3    15.80
   4      1.22469740    -0.85939040  -264.64678893     0.00012783    -0.00141365  0.77D-05  0.41D-05  4  4    16.84
   5      1.22573305    -0.85935329  -264.64675183     0.00003710    -0.00036577  0.58D-06  0.29D-06  5  5    17.96
   6      1.22589741    -0.85932633  -264.64672486     0.00002697    -0.00000824  0.42D-07  0.24D-07  6  6    19.48
   7      1.22592776    -0.85932387  -264.64672241     0.00000246    -0.00000634  0.31D-08  0.40D-08  6  4    20.58
   8      1.22592849    -0.85932334  -264.64672188     0.00000053     0.00000185  0.41D-09  0.29D-09  6  1    21.69
   9      1.22592914    -0.85932341  -264.64672194    -0.00000007     0.00000057  0.32D-10  0.24D-10  6  2    22.81

 Norm of t1 vector:      0.10628307      S-energy:    -0.00000004      T1 diagnostic:  0.01534064
                                                                       D1 diagnostic:  0.04543953

 Adding energy correction from Wij-K(Fij), methodcc=6  factor=1.0
 
  CCSD correlation energy              -0.859323408440
  MP2-F12 correction (uncoupled)       -0.092459949393
  C*T doubles correction               -0.001472286362
  f12b correction                       0.015408128171


 Total CPU time for triples:     35.58 sec


 RESULTS
 =======

  Reference energy                   -263.771458409392
  F12 singles correction               -0.015940126090

 F12 singles corrections added to reference energy

  New reference energy               -263.787398535483

  F12a singlet correction              -0.080354806448
  F12a triplet correction              -0.013577429307
  F12a total correction                -0.093932235755

 F12a corrections for ansatz F12/3C(FIX) added to CCSD energy
 
  CCSD-F12a singlet pair energy        -0.641835268474
  CCSD-F12a triplet pair energy        -0.311420332929
  CCSD-F12a correlation energy         -0.953255644195

  Triples (T) contribution             -0.037808942984
  Total correlation energy             -0.991064587178

  CCSD-F12a total energy             -264.740654179677
  CCSD[T]-F12a energy                -264.781005592092
  CCSD-T-F12a energy                 -264.777529390241
 !CCSD(T)-F12a total energy          -264.778463122661

 F12b corrections for ansatz F12/3C(FIX) added to CCSD(T)-F12a energy

  CCSD-F12b singlet pair energy        -0.627654877706
  CCSD-F12b triplet pair energy        -0.310192595526
  CCSD-F12b correlation energy         -0.937847516023

  Triples (T) contribution             -0.037808942984
  Total correlation energy             -0.975656459007

  CCSD-F12b total energy             -264.725246051506
  CCSD[T]-F12b energy                -264.765597463920
  CCSD-T-F12b energy                 -264.762121262069
 !CCSD(T)-F12b total energy          -264.763054994489

 Timing summary (sec):

 STEP                 CPU(USER)    SYS     CPU(TOT)    WALL
 Transformation          1.76      0.36      2.12      3.01
 CCSD iterations        10.21      0.95     11.16     11.19
 Triples                35.58      1.04     36.62     36.60
 MP2-F12                10.84      2.05     12.89     16.11
 F12b energy             0.61      0.03      0.64      2.11

 Program statistics:

 Available memory in ccsd:                99998934
 Min. memory needed in ccsd:               2244783
 Max. memory used in ccsd:                 3005571
 Max. memory used in cckext:               2769663 (10 integral passes)



 **********************************************************************************************************************************
 DATASETS  * FILE   NREC   LENGTH (MB)   RECORD NAMES
              1      20      137.19       500      610      700      900      950      970     1000      129      960     1100   
                                          VAR    BASINP    GEOM    SYMINP    ZMAT    AOBASIS   BASIS     P2S    ABASIS      S 
                                         1400     1410     1200     1210     1080     1600     1650     1700      960(1)  1380   
                                           T        V       H0       H01     AOSYM     SMH    MOLCAS    OPER    ABASIS    JKOP   

              2       5        0.97       700     1000     2100     7360     7350   
                                         GEOM     BASIS     RHF    F12ABS    EF12   

 PROGRAMS   *        TOTAL   CCSD(T)        HF       INT
 CPU TIMES  *        66.96     59.03      1.46      6.37
 REAL TIME  *        79.41 SEC
 DISK USED  *         1.55 GB      
 SF USED    *         1.34 GB      
 GA USED    *         2.40 MB       (max)       0.00 MB       (current)
 **********************************************************************************************************************************

     CCSD(T)-F12        HF-SCF  
   -264.76305499   -263.77145841
 **********************************************************************************************************************************
 Variable memory released
