
 Primary working directories    : /scratch/kee
 Secondary working directories  : /scratch/kee
 Wavefunction directory         : /home/kee/wfu/
 Main file repository           : /scratch/kee/

 ARCHNAME  : Linux/x86_64
 FC        : /opt/intel/composer_xe_2015.0.090/bin/intel64/ifort
 FCVERSION : 15.0.0
 BLASLIB   : -L/opt/intel/mkl/lib/intel64 -lmkl_intel_ilp64 -lmkl_sequential -lmkl_core
 id        : emory

 Nodes     nprocs
 node16       3
 Number of processes for MPI-2 version of Molpro:   nprocs(total)=    4   nprocs(compute)=    3   nprocs(helper)=    1
 ga_uses_ma=false, calling ma_init with nominal heap.
 GA-space will be limited to   8.0 MW (determined by -G option)

 Using customized tuning parameters: mindgm=7; mindgv=32; mindgc=1; mindgr=1; noblas=0; mincuda=1000; minvec=7
 default implementation of scratch files=sf  

 ***,co2h2o
 memory,100,m
 basis avtz
 geomtype = xyz
 geometry = {
 6
       0.00000777
 O    10.97257393   -1.10347931    0.00000000
 O    11.76744404    1.08065151   -0.00000000
 O     4.79356282    0.00000000    0.00000000
 H     4.04556774    0.58340495    0.10287003
 H     5.54598802    0.58686026    0.10347930
 C    11.34356282    0.00000000    0.00000000
 }
 hf
 ccsd(t)-f12
 ---

 Variables initialized (665), CPU time= 0.00 sec
 Commands  initialized (462), CPU time= 0.01 sec, 486 directives.
 Default parameters read. Elapsed time= 0.04 sec

 Checking input...
 Passed
1


                                         ***  PROGRAM SYSTEM MOLPRO  ***
                         Copyright, University College Cardiff Consultants Limited, 2008

                                    Version 2010.1 linked 9 Dec 2014 15:06:28 


 **********************************************************************************************************************************
 LABEL *   co2h2o                                                                        
 Linux-2.6.32-504.el6.x86_64/node16(x86_64) 64 bit mpp version                           DATE: 18-Jan-17          TIME: 22:08:58  
 **********************************************************************************************************************************

 Patch level:      19
 **********************************************************************************************************************************

 Variable memory set to  100000000 words,  buffer space   230000 words

 SETTING BASIS          =    AVTZ
 SETTING GEOMTYPE       =    XYZ

Geometry recognized as XYZ



 Recomputing integrals since basis changed


 Using spherical harmonics

 Library entry O      S aug-cc-pVTZ          selected for orbital group  1
 Library entry O      P aug-cc-pVTZ          selected for orbital group  1
 Library entry O      D aug-cc-pVTZ          selected for orbital group  1
 Library entry O      F aug-cc-pVTZ          selected for orbital group  1
 Library entry H      S aug-cc-pVTZ          selected for orbital group  2
 Library entry H      P aug-cc-pVTZ          selected for orbital group  2
 Library entry H      D aug-cc-pVTZ          selected for orbital group  2
 Library entry C      S aug-cc-pVTZ          selected for orbital group  3
 Library entry C      P aug-cc-pVTZ          selected for orbital group  3
 Library entry C      D aug-cc-pVTZ          selected for orbital group  3
 Library entry C      F aug-cc-pVTZ          selected for orbital group  3

1PROGRAM * SEWARD (Integral evaluation for generally contracted gaussian basis sets)     Author: Roland Lindh, 1990

 Geometry written to block  1 of record 700


 Point group  C1  



 ATOMIC COORDINATES

 NR  ATOM    CHARGE       X              Y              Z

   1  O       8.00   20.735159684   -2.085273688    0.000000000
   2  O       8.00   22.237246502    2.042135397    0.000000000
   3  O       8.00    9.058520924    0.000000000    0.000000000
   4  H       1.00    7.645015075    1.102475579    0.194396184
   5  H       1.00   10.480398486    1.109005169    0.195547537
   6  C       6.00   21.436227084    0.000000000    0.000000000

 Bond lengths in Bohr (Angstrom)

 1-6  2.199968602  2-6  2.193615529  3-4  1.803119814  3-5  1.813799081
     (1.164173245)     (1.160811343)     (0.954169911)     (0.959821135)

 Bond angles

  1-6-2  177.16520951   4-3-5  103.24222917

 NUCLEAR CHARGE:                   32
 NUMBER OF PRIMITIVE AOS:         322
 NUMBER OF SYMMETRY AOS:          282
 NUMBER OF CONTRACTIONS:          230   ( 230A   )
 NUMBER OF CORE ORBITALS:           4   (   4A   )
 NUMBER OF VALENCE ORBITALS:       18   (  18A   )


 NUCLEAR REPULSION ENERGY   85.08617777


 Eigenvalues of metric

         1 0.347E-03 0.358E-03 0.382E-03 0.395E-03 0.899E-03 0.923E-03 0.159E-02 0.173E-02


 Contracted 2-electron integrals neglected if value below      1.0D-11
 AO integral compression algorithm  1   Integral accuracy      1.0D-11

     557.318 MB (compressed) written to integral file ( 18.3%)

     Node minimum: 176.947 MB, node maximum: 196.346 MB


 NUMBER OF SORTED TWO-ELECTRON INTEGRALS:  117629820.     BUFFER LENGTH:  32768
 NUMBER OF SEGMENTS:   8  SEGMENT LENGTH:   15997437      RECORD LENGTH: 524288

 Memory used in sort:      16.55 MW

 SORT1 READ   381439936. AND WROTE    40792918. INTEGRALS IN    121 RECORDS. CPU TIME:     3.25 SEC, REAL TIME:     4.09 SEC
 SORT2 READ   122162787. AND WROTE   352862895. INTEGRALS IN   2025 RECORDS. CPU TIME:     1.48 SEC, REAL TIME:     2.15 SEC

 Node minimum:   117612110.  Node maximum:   117629820. integrals

 OPERATOR DM      FOR CENTER  0  COORDINATES:    0.000000    0.000000    0.000000


 **********************************************************************************************************************************
 DATASETS  * FILE   NREC   LENGTH (MB)   RECORD NAMES
              1      18        4.62       500      610      700      900      950      970     1000      129      960     1100   
                                          VAR    BASINP    GEOM    SYMINP    ZMAT    AOBASIS   BASIS     P2S    ABASIS      S 
                                         1400     1410     1200     1210     1080     1600     1650     1700   
                                           T        V       H0       H01     AOSYM     SMH    MOLCAS    OPER   

 PROGRAMS   *        TOTAL       INT
 CPU TIMES  *         8.24      8.15
 REAL TIME  *        10.19 SEC
 DISK USED  *         1.97 GB      
 GA USED    *         0.00 MB       (max)       0.00 MB       (current)
 **********************************************************************************************************************************

1PROGRAM * RHF-SCF (CLOSED SHELL)       Authors: W. Meyer, H.-J. Werner


 NUMBER OF ELECTRONS:      16+   16-    SPACE SYMMETRY=1    SPIN SYMMETRY=Singlet 
 CONVERGENCE THRESHOLDS:    1.00E-05 (Density)    1.00E-07 (Energy)
 MAX. NUMBER OF ITERATIONS:       60
 INTERPOLATION TYPE:            DIIS
 INTERPOLATION STEPS:              2 (START)      1 (STEP)
 LEVEL SHIFTS:                  0.00 (CLOSED)  0.00 (OPEN) 



 Orbital guess generated from atomic densities. Full valence occupancy:   22

 Molecular orbital dump at record        2100.2

 ITERATION    DDIFF          GRAD             ENERGY        2-EL.EN.            DIPOLE MOMENTS         DIIS
    1      0.000D+00      0.000D+00      -263.65911822    365.498113   -0.06886    1.17032    0.19888    0
    2      0.000D+00      0.470D-02      -263.72470084    361.001169   -0.01457    0.65919    0.11613    1
    3      0.753D-02      0.320D-02      -263.76841091    363.547840   -0.03398    0.79150    0.13596    2
    4      0.310D-02      0.300D-03      -263.76890797    363.334632   -0.03375    0.79232    0.13685    3
    5      0.356D-03      0.877D-04      -263.76896668    363.338161   -0.03305    0.78929    0.13586    4
    6      0.134D-03      0.356D-04      -263.76897402    363.352468   -0.03342    0.78857    0.13601    5
    7      0.445D-04      0.891D-05      -263.76897478    363.344505   -0.03318    0.78889    0.13594    6
    8      0.147D-04      0.240D-05      -263.76897483    363.345322   -0.03336    0.78843    0.13594    7
    9      0.410D-05      0.163D-05      -263.76897483    363.345574   -0.03323    0.78878    0.13594    0

 Final occupancy:  16

 !RHF STATE 1.1 Energy               -263.768974833775
 Nuclear energy                        85.08617777
 One-electron energy                 -530.52793946
 Two-electron energy                  181.67278686
 Virial quotient                       -1.00179739
 !RHF STATE 1.1 Dipole moment          -0.03323292     0.78877941     0.13593572
 Dipole moment /Debye                  -0.08446414     2.00474597     0.34549150

 Orbital energies:

         1.1          2.1          3.1          4.1          5.1          6.1          7.1          8.1          9.1         10.1
    -20.654952   -20.653552   -20.568651   -11.463062    -1.531783    -1.478441    -1.355613    -0.802056    -0.744115    -0.716454

        11.1         12.1         13.1         14.1         15.1         16.1         17.1         18.1
     -0.715815    -0.715779    -0.588384    -0.545441    -0.545404    -0.511681     0.026586     0.041554


 **********************************************************************************************************************************
 DATASETS  * FILE   NREC   LENGTH (MB)   RECORD NAMES
              1      18        4.62       500      610      700      900      950      970     1000      129      960     1100   
                                          VAR    BASINP    GEOM    SYMINP    ZMAT    AOBASIS   BASIS     P2S    ABASIS      S 
                                         1400     1410     1200     1210     1080     1600     1650     1700   
                                           T        V       H0       H01     AOSYM     SMH    MOLCAS    OPER   

              2       3        1.44       700     1000     2100   
                                         GEOM     BASIS     RHF  

 PROGRAMS   *        TOTAL        HF       INT
 CPU TIMES  *        17.57      9.33      8.15
 REAL TIME  *        19.80 SEC
 DISK USED  *         2.00 GB      
 SF USED    *         0.21 MB      
 GA USED    *         0.00 MB       (max)       0.00 MB       (current)
 **********************************************************************************************************************************


1PROGRAM * CCSD (Closed-shell coupled cluster)     Authors: C. Hampel, H.-J. Werner, 1991, M. Deegan, P.J. Knowles, 1992

                                  CCSD-F12 implementation by  H.-J. Werner, 2007

                   Density fitting integral evaluation by F.R. Manby, 2003,2007, G. Knizia, 2010

 Basis set CC-PVTZ/JKFIT generated.      Number of basis functions:   376 
 Basis set AUG-CC-PVTZ/MP2FIT generated. Number of basis functions:   516 

 Convergence thresholds:  THRVAR = 1.00D-08  THRDEN = 1.00D-06

 CCSD(T)     terms to be evaluated (factor= 1.000)


 Number of core orbitals:           4 (   4 )
 Number of closed-shell orbitals:  12 (  12 )
 Number of external orbitals:     214 ( 214 )

 Molecular orbitals read from record     2100.2  Type=RHF/CANONICAL (state 1.1)

 MP2-F12 correlation treatment (H.-J. Werner, 2006)
 --------------------------------------------------

 Using MP2-F12 with ansatz 3C(FIX)

 Using projected zeroth-order Hamiltonian (+Z)

 FOCKRIB=T FOCKRIC=T FOCKRIP=T CABSP=T CABSA=T CABSK=T CABSF=T GBC=F EBC=F DMAT=T NOFIK=T NOPAO=1 SOLVE=-1  USEPAO=0
 EXCH_A= T EXCH_B= F EXCH_C= F EXCH_P= F
 
 Geminal basis:    OPTFULL  GEM_TYPE=SLATER  BETA=1.0  NGEM=6

 Optimizing Gaussian exponents for each gem_beta

 Geminal optimization for beta= 1.0000
 Weight function:   m=0, omega= 1.4646

 Augmented Hessian optimization of geminal fit. Trust ratio= 0.40000
 Convergence reached after   2 iterations. Final gradient= 8.24D-16, Step= 4.32D-06, Delta= 1.28D-09
 
 Alpha:                 0.19532     0.81920     2.85917     9.50073    35.69989   197.79328
 Coeff:                 0.27070     0.30552     0.18297     0.10986     0.06810     0.04224
 

 All pairs explicitly correlated. Number of r12-pairs:           78
 
 AO(A)-basis ORBITAL           loaded. Number of functions:     230
 RI(R)-basis CC-PVTZ/JKFIT     loaded. Number of functions:     376
 DF-basis CC-PVTZ/JKFIT        loaded. Number of functions:     376

 Screening thresholds:   THRAO=  1.00D-10  THRMO=  1.00D-09  THRPROD=  1.00D-09
                         THRSW=  1.00D-05  THROV=  1.00D-12  THRF12=   1.00D-08

 CPU time for Fock operators                      1.00 sec
 
 Construction of ABS:
 Smallest eigenvalue of S          2.58E-04  (threshold= 1.00E-08)
 Ratio eigmin/eigmax               1.84E-06  (threshold= 1.00E-09)
 Smallest eigenvalue of S kept     2.58E-04  (threshold= 2.58E-04, 0 functions deleted, 376 kept)
 
 Construction of CABS:
 Smallest eigenvalue of S          2.30E-08  (threshold= 1.00E-08)
 Ratio eigmin/eigmax               2.30E-08  (threshold= 1.00E-09)
 Smallest eigenvalue of S kept     2.30E-08  (threshold= 2.30E-08, 0 functions deleted, 376 kept)
 
 CPU time for CABS singles                        0.18 sec

 CABS-singles contribution of  -0.01593284 patched into reference energy.
 New reference energy        -263.78490768
 
 AO(A)-basis ORBITAL           loaded. Number of functions:     230
 RI(R)-basis CC-PVTZ/JKFIT     loaded. Number of functions:     376
 DF-basis AUG-CC-PVTZ/MP2FIT   loaded. Number of functions:     516

 Screening thresholds:   THRAO=  1.00D-10  THRMO=  1.00D-09  THRPROD=  1.00D-09
                         THRSW=  1.00D-05  THROV=  1.00D-12  THRF12=   1.00D-08

 CPU time for 3-index integral evaluation         2.05 sec
 CPU time for first  half transformation          0.27 sec ( 9096.2 MFLOP/sec)
 CPU time for second half transformation          0.04 sec ( 2025.6 MFLOP/sec)
 CPU time for sorting                             0.27 sec
 CPU time for fitting                             0.05 sec (27861.0 MFLOP/sec)
 CPU time for tilde quantities                    0.08 sec (23111.0 MFLOP/sec)
 CPU time for assembly                            0.97 sec (22604.4 MFLOP/sec)
 CPU time for tranop_f12                          0.95 sec (29742.9 MFLOP/sec)
 CPU time for f12 integrals (total)               7.03 sec
 F12-matrices built in  3 passes.
 F12-matrices built in  3 passes.
 F12-matrices built in  3 passes.
 F12-matrices built in  3 passes.
 FC-matrix built in  3 passes.
 CPU time for f12 matrices (total)                1.55 sec

 Diagonal F12 approximation with fixed coefficients:  TSING= 0.500,  TTRIP= 0.250 (scaled by -1/beta)

 DF-MP2-F12 energy corrections:
 ------------------------------
 Approx.                                    Singlet             Triplet             Total
 DF-MP2-F12/3*C(DX,FIX)                -0.097436126473     -0.016932348807     -0.114368475280
 DF-MP2-F12/3*C(FIX)                   -0.079845898563     -0.013393642203     -0.093239540765
 DF-MP2-F12/3C(FIX)                    -0.080207583245     -0.013417648950     -0.093625232195

 DF-MP2-F12 correlation energies:
 --------------------------------
 Approx.                                    Singlet             Triplet             Ecorr            Total Energy
 DF-MP2                                -0.537828548043     -0.343172397816     -0.881000945859   -264.665908624288
 DF-MP2-F12/3*C(DX,FIX)                -0.635264674517     -0.360104746622     -0.995369421139   -264.780277099568
 DF-MP2-F12/3*C(FIX)                   -0.617674446606     -0.356566040018     -0.974240486624   -264.759148165053
 DF-MP2-F12/3C(FIX)                    -0.618036131288     -0.356590046766     -0.974626178054   -264.759533856483

 SCS-DF-MP2 energies (F_SING= 1.20000  F_TRIP= 0.62222  F_PARALLEL= 0.33333):
 ----------------------------------------------------------------------------
 SCS-DF-MP2                            -0.858923749626   -264.643831428055
 SCS-DF-MP2-F12/3*C(DX,FIX)            -0.986382785096   -264.771290463525
 SCS-DF-MP2-F12/3*C(FIX)               -0.963072649717   -264.747980328146
 SCS-DF-MP2-F12/3C(FIX)                -0.963521608867   -264.748429287296
 Symmetry transformation completed.

 Number of N-1 electron functions:              12
 Number of N-2 electron functions:              78
 Number of singly external CSFs:              2568
 Number of doubly external CSFs:           3298596
 Total number of CSFs:                     3301165

 Pair and operator lists are different

 Length of J-op  integral file:             474.22 MB
 Length of K-op  integral file:             572.29 MB
 Length of 3-ext integral record:             0.00 MB

 For full I/O caching in triples, increase memory by 50.81 Mwords to 151.09 Mwords.

 Integral transformation finished. Total CPU:  11.22 sec, npass=  1  Memory used:  87.46 MW

 Reference energy:                   -263.78490768

 Adding F12 terms to K(Cij), methodcc=6,  factor=1.0

 ITER.      SQ.NORM     CORR.ENERGY   TOTAL ENERGY   ENERGY CHANGE        DEN1      VAR(S)    VAR(P)  DIIS     TIME
   1      1.20219745    -0.86291982  -264.64782750     0.01809738     0.04677260  0.72D-02  0.56D-02  1  1    32.02
   2      1.21652708    -0.85867772  -264.64358540     0.00424211    -0.02017750  0.86D-04  0.59D-03  2  2    40.73
   3      1.22189187    -0.85877276  -264.64368044    -0.00009504    -0.00236165  0.13D-03  0.32D-04  3  3    49.97
   4      1.22469946    -0.85864402  -264.64355170     0.00012874    -0.00141300  0.76D-05  0.41D-05  4  4    61.16
   5      1.22573331    -0.85860601  -264.64351369     0.00003800    -0.00036756  0.56D-06  0.29D-06  5  5    69.92
   6      1.22589614    -0.85857907  -264.64348675     0.00002694    -0.00000807  0.40D-07  0.24D-07  6  6   121.73
   7      1.22592568    -0.85857662  -264.64348430     0.00000245    -0.00000622  0.27D-08  0.41D-08  6  4   129.51
   8      1.22592605    -0.85857612  -264.64348380     0.00000050     0.00000193  0.40D-09  0.28D-09  6  1   144.23
   9      1.22592664    -0.85857619  -264.64348387    -0.00000007     0.00000058  0.28D-10  0.22D-10  6  2   154.54

 Norm of t1 vector:      0.10608053      S-energy:     0.00000067      T1 diagnostic:  0.01531141
                                                                       D1 diagnostic:  0.04500346

 Adding energy correction from Wij-K(Fij), methodcc=6  factor=1.0
 
  CCSD correlation energy              -0.858576191268
  MP2-F12 correction (uncoupled)       -0.092466123375
  C*T doubles correction               -0.001477801102
  f12b correction                       0.015404697194


 Total CPU time for triples:    239.60 sec


 RESULTS
 =======

  Reference energy                   -263.768974833775
  F12 singles correction               -0.015932844654

 F12 singles corrections added to reference energy

  New reference energy               -263.784907678429

  F12a singlet correction              -0.080408231652
  F12a triplet correction              -0.013535692825
  F12a total correction                -0.093943924477

 F12a corrections for ansatz F12/3C(FIX) added to CCSD energy
 
  CCSD-F12a singlet pair energy        -0.641956351935
  CCSD-F12a triplet pair energy        -0.310564433747
  CCSD-F12a correlation energy         -0.952520115744

  Triples (T) contribution             -0.037669656120
  Total correlation energy             -0.990189771864

  CCSD-F12a total energy             -264.737427794173
  CCSD[T]-F12a energy                -264.777647312101
  CCSD-T-F12a energy                 -264.774157788526
 !CCSD(T)-F12a total energy          -264.775097450293

 F12b corrections for ansatz F12/3C(FIX) added to CCSD(T)-F12a energy

  CCSD-F12b singlet pair energy        -0.627774768233
  CCSD-F12b triplet pair energy        -0.309341320255
  CCSD-F12b correlation energy         -0.937115418551

  Triples (T) contribution             -0.037669656120
  Total correlation energy             -0.974785074671

  CCSD-F12b total energy             -264.722023096980
  CCSD[T]-F12b energy                -264.762242614907
  CCSD-T-F12b energy                 -264.758753091332
 !CCSD(T)-F12b total energy          -264.759692753100

 Timing summary (sec):

 STEP                 CPU(USER)    SYS     CPU(TOT)    WALL
 Transformation         11.33      7.81     19.14     23.33
 CCSD iterations       132.78     11.91    144.69    160.14
 Triples               239.60      3.73    243.33    248.12
 MP2-F12                10.45      1.94     12.39     12.39
 F12b energy             6.22      0.09      6.31      6.30

 Program statistics:

 Available memory in ccsd:                99998934
 Min. memory needed in ccsd:               8644845
 Max. memory used in ccsd:                11598633
 Max. memory used in cckext:               8768967 (10 integral passes)



 **********************************************************************************************************************************
 DATASETS  * FILE   NREC   LENGTH (MB)   RECORD NAMES
              1      20      527.84       500      610      700      900      950      970     1000      129      960     1100   
                                          VAR    BASINP    GEOM    SYMINP    ZMAT    AOBASIS   BASIS     P2S    ABASIS      S 
                                         1400     1410     1200     1210     1080     1600     1650     1700      960(1)  1380   
                                           T        V       H0       H01     AOSYM     SMH    MOLCAS    OPER    ABASIS    JKOP   

              2       5        2.50       700     1000     2100     7360     7350   
                                         GEOM     BASIS     RHF    F12ABS    EF12   

 PROGRAMS   *        TOTAL   CCSD(T)        HF       INT
 CPU TIMES  *       418.11    400.54      9.33      8.15
 REAL TIME  *       470.52 SEC
 DISK USED  *         2.87 GB      
 SF USED    *         1.91 GB      
 GA USED    *         2.40 MB       (max)       0.00 MB       (current)
 **********************************************************************************************************************************

     CCSD(T)-F12        HF-SCF  
   -264.75969275   -263.76897483
 **********************************************************************************************************************************
 Variable memory released
