
 Primary working directories    : /scratch/kee
 Secondary working directories  : /scratch/kee
 Wavefunction directory         : /home/kee/wfu/
 Main file repository           : /scratch/kee/

 ARCHNAME  : Linux/x86_64
 FC        : /opt/intel/composer_xe_2015.0.090/bin/intel64/ifort
 FCVERSION : 15.0.0
 BLASLIB   : -L/opt/intel/mkl/lib/intel64 -lmkl_intel_ilp64 -lmkl_sequential -lmkl_core
 id        : emory

 Nodes     nprocs
 node16       3
 Number of processes for MPI-2 version of Molpro:   nprocs(total)=    4   nprocs(compute)=    3   nprocs(helper)=    1
 ga_uses_ma=false, calling ma_init with nominal heap.
 GA-space will be limited to   8.0 MW (determined by -G option)

 Using customized tuning parameters: mindgm=7; mindgv=32; mindgc=1; mindgr=1; noblas=0; mincuda=1000; minvec=7
 default implementation of scratch files=sf  

 ***,co2h2o
 memory,100,m
 basis avtz
 geomtype = xyz
 geometry = {
 6
       0.00000777
 O    10.97257393   -1.10347931    0.00000000
 O    11.76744404    1.08065151   -0.00000000
 O     4.49356282    0.00000000    0.00000000
 H     3.74556774    0.58340495    0.10287003
 H     5.24598802    0.58686026    0.10347930
 C    11.34356282    0.00000000    0.00000000
 }
 hf
 ccsd(t)-f12
 ---

 Variables initialized (665), CPU time= 0.01 sec
 Commands  initialized (462), CPU time= 0.01 sec, 486 directives.
 Default parameters read. Elapsed time= 0.03 sec

 Checking input...
 Passed
1


                                         ***  PROGRAM SYSTEM MOLPRO  ***
                         Copyright, University College Cardiff Consultants Limited, 2008

                                    Version 2010.1 linked 9 Dec 2014 15:06:28 


 **********************************************************************************************************************************
 LABEL *   co2h2o                                                                        
 Linux-2.6.32-504.el6.x86_64/node16(x86_64) 64 bit mpp version                           DATE: 18-Jan-17          TIME: 22:56:41  
 **********************************************************************************************************************************

 Patch level:      19
 **********************************************************************************************************************************

 Variable memory set to  100000000 words,  buffer space   230000 words

 SETTING BASIS          =    AVTZ
 SETTING GEOMTYPE       =    XYZ

Geometry recognized as XYZ



 Recomputing integrals since basis changed


 Using spherical harmonics

 Library entry O      S aug-cc-pVTZ          selected for orbital group  1
 Library entry O      P aug-cc-pVTZ          selected for orbital group  1
 Library entry O      D aug-cc-pVTZ          selected for orbital group  1
 Library entry O      F aug-cc-pVTZ          selected for orbital group  1
 Library entry H      S aug-cc-pVTZ          selected for orbital group  2
 Library entry H      P aug-cc-pVTZ          selected for orbital group  2
 Library entry H      D aug-cc-pVTZ          selected for orbital group  2
 Library entry C      S aug-cc-pVTZ          selected for orbital group  3
 Library entry C      P aug-cc-pVTZ          selected for orbital group  3
 Library entry C      D aug-cc-pVTZ          selected for orbital group  3
 Library entry C      F aug-cc-pVTZ          selected for orbital group  3

1PROGRAM * SEWARD (Integral evaluation for generally contracted gaussian basis sets)     Author: Roland Lindh, 1990

 Geometry written to block  1 of record 700


 Point group  C1  



 ATOMIC COORDINATES

 NR  ATOM    CHARGE       X              Y              Z

   1  O       8.00   20.735159684   -2.085273688    0.000000000
   2  O       8.00   22.237246502    2.042135397    0.000000000
   3  O       8.00    8.491603084    0.000000000    0.000000000
   4  H       1.00    7.078097235    1.102475579    0.194396184
   5  H       1.00    9.913480647    1.109005169    0.195547537
   6  C       6.00   21.436227084    0.000000000    0.000000000

 Bond lengths in Bohr (Angstrom)

 1-6  2.199968602  2-6  2.193615529  3-4  1.803119814  3-5  1.813799081
     (1.164173245)     (1.160811343)     (0.954169911)     (0.959821135)

 Bond angles

  1-6-2  177.16520951   4-3-5  103.24222917

 NUCLEAR CHARGE:                   32
 NUMBER OF PRIMITIVE AOS:         322
 NUMBER OF SYMMETRY AOS:          282
 NUMBER OF CONTRACTIONS:          230   ( 230A   )
 NUMBER OF CORE ORBITALS:           4   (   4A   )
 NUMBER OF VALENCE ORBITALS:       18   (  18A   )


 NUCLEAR REPULSION ENERGY   84.32606484


 Eigenvalues of metric

         1 0.348E-03 0.362E-03 0.385E-03 0.394E-03 0.900E-03 0.923E-03 0.161E-02 0.174E-02


 Contracted 2-electron integrals neglected if value below      1.0D-11
 AO integral compression algorithm  1   Integral accuracy      1.0D-11

     531.890 MB (compressed) written to integral file ( 17.8%)

     Node minimum: 173.801 MB, node maximum: 179.306 MB


 NUMBER OF SORTED TWO-ELECTRON INTEGRALS:  117629820.     BUFFER LENGTH:  32768
 NUMBER OF SEGMENTS:   8  SEGMENT LENGTH:   15997437      RECORD LENGTH: 524288

 Memory used in sort:      16.55 MW

 SORT1 READ   373238834. AND WROTE    38463699. INTEGRALS IN    114 RECORDS. CPU TIME:     3.11 SEC, REAL TIME:     3.50 SEC
 SORT2 READ   115120137. AND WROTE   352862895. INTEGRALS IN   2046 RECORDS. CPU TIME:     1.22 SEC, REAL TIME:    10.94 SEC

 Node minimum:   117612110.  Node maximum:   117629820. integrals

 OPERATOR DM      FOR CENTER  0  COORDINATES:    0.000000    0.000000    0.000000


 **********************************************************************************************************************************
 DATASETS  * FILE   NREC   LENGTH (MB)   RECORD NAMES
              1      18        4.62       500      610      700      900      950      970     1000      129      960     1100   
                                          VAR    BASINP    GEOM    SYMINP    ZMAT    AOBASIS   BASIS     P2S    ABASIS      S 
                                         1400     1410     1200     1210     1080     1600     1650     1700   
                                           T        V       H0       H01     AOSYM     SMH    MOLCAS    OPER   

 PROGRAMS   *        TOTAL       INT
 CPU TIMES  *        10.22     10.14
 REAL TIME  *        20.51 SEC
 DISK USED  *         1.86 GB      
 GA USED    *         0.00 MB       (max)       0.00 MB       (current)
 **********************************************************************************************************************************

1PROGRAM * RHF-SCF (CLOSED SHELL)       Authors: W. Meyer, H.-J. Werner


 NUMBER OF ELECTRONS:      16+   16-    SPACE SYMMETRY=1    SPIN SYMMETRY=Singlet 
 CONVERGENCE THRESHOLDS:    1.00E-05 (Density)    1.00E-07 (Energy)
 MAX. NUMBER OF ITERATIONS:       60
 INTERPOLATION TYPE:            DIIS
 INTERPOLATION STEPS:              2 (START)      1 (STEP)
 LEVEL SHIFTS:                  0.00 (CLOSED)  0.00 (OPEN) 



 Orbital guess generated from atomic densities. Full valence occupancy:   22

 Molecular orbital dump at record        2100.2

 ITERATION    DDIFF          GRAD             ENERGY        2-EL.EN.            DIPOLE MOMENTS         DIIS
    1      0.000D+00      0.000D+00      -263.65918888    363.985486   -0.06886    1.17032    0.19888    0
    2      0.000D+00      0.470D-02      -263.72475884    359.486027   -0.01396    0.66138    0.11631    1
    3      0.753D-02      0.319D-02      -263.76844213    362.033341   -0.03381    0.79266    0.13608    2
    4      0.310D-02      0.300D-03      -263.76893912    361.820135   -0.03350    0.79372    0.13697    3
    5      0.356D-03      0.876D-04      -263.76899781    361.823618   -0.03287    0.79052    0.13598    4
    6      0.134D-03      0.356D-04      -263.76900513    361.837932   -0.03319    0.78991    0.13613    5
    7      0.444D-04      0.888D-05      -263.76900588    361.829933   -0.03298    0.79018    0.13606    6
    8      0.146D-04      0.235D-05      -263.76900593    361.830801   -0.03314    0.78974    0.13606    7
    9      0.408D-05      0.159D-05      -263.76900594    361.831012   -0.03302    0.79008    0.13605    0

 Final occupancy:  16

 !RHF STATE 1.1 Energy               -263.769005938700
 Nuclear energy                        84.32606484
 One-electron energy                 -529.01057672
 Two-electron energy                  180.91550595
 Virial quotient                       -1.00179773
 !RHF STATE 1.1 Dipole moment          -0.03302042     0.79008128     0.13605425
 Dipole moment /Debye                  -0.08392403     2.00805479     0.34579276

 Orbital energies:

         1.1          2.1          3.1          4.1          5.1          6.1          7.1          8.1          9.1         10.1
    -20.654853   -20.653488   -20.568536   -11.462992    -1.531700    -1.478364    -1.355500    -0.801985    -0.744050    -0.716337

        11.1         12.1         13.1         14.1         15.1         16.1         17.1         18.1
     -0.715727    -0.715700    -0.588280    -0.545368    -0.545329    -0.511571     0.026588     0.041225


 **********************************************************************************************************************************
 DATASETS  * FILE   NREC   LENGTH (MB)   RECORD NAMES
              1      18        4.62       500      610      700      900      950      970     1000      129      960     1100   
                                          VAR    BASINP    GEOM    SYMINP    ZMAT    AOBASIS   BASIS     P2S    ABASIS      S 
                                         1400     1410     1200     1210     1080     1600     1650     1700   
                                           T        V       H0       H01     AOSYM     SMH    MOLCAS    OPER   

              2       3        1.44       700     1000     2100   
                                         GEOM     BASIS     RHF  

 PROGRAMS   *        TOTAL        HF       INT
 CPU TIMES  *        19.34      9.12     10.14
 REAL TIME  *        29.89 SEC
 DISK USED  *         1.89 GB      
 SF USED    *         0.21 MB      
 GA USED    *         0.00 MB       (max)       0.00 MB       (current)
 **********************************************************************************************************************************


1PROGRAM * CCSD (Closed-shell coupled cluster)     Authors: C. Hampel, H.-J. Werner, 1991, M. Deegan, P.J. Knowles, 1992

                                  CCSD-F12 implementation by  H.-J. Werner, 2007

                   Density fitting integral evaluation by F.R. Manby, 2003,2007, G. Knizia, 2010

 Basis set CC-PVTZ/JKFIT generated.      Number of basis functions:   376 
 Basis set AUG-CC-PVTZ/MP2FIT generated. Number of basis functions:   516 

 Convergence thresholds:  THRVAR = 1.00D-08  THRDEN = 1.00D-06

 CCSD(T)     terms to be evaluated (factor= 1.000)


 Number of core orbitals:           4 (   4 )
 Number of closed-shell orbitals:  12 (  12 )
 Number of external orbitals:     214 ( 214 )

 Molecular orbitals read from record     2100.2  Type=RHF/CANONICAL (state 1.1)

 MP2-F12 correlation treatment (H.-J. Werner, 2006)
 --------------------------------------------------

 Using MP2-F12 with ansatz 3C(FIX)

 Using projected zeroth-order Hamiltonian (+Z)

 FOCKRIB=T FOCKRIC=T FOCKRIP=T CABSP=T CABSA=T CABSK=T CABSF=T GBC=F EBC=F DMAT=T NOFIK=T NOPAO=1 SOLVE=-1  USEPAO=0
 EXCH_A= T EXCH_B= F EXCH_C= F EXCH_P= F
 
 Geminal basis:    OPTFULL  GEM_TYPE=SLATER  BETA=1.0  NGEM=6

 Optimizing Gaussian exponents for each gem_beta

 Geminal optimization for beta= 1.0000
 Weight function:   m=0, omega= 1.4646

 Augmented Hessian optimization of geminal fit. Trust ratio= 0.40000
 Convergence reached after   2 iterations. Final gradient= 8.24D-16, Step= 4.32D-06, Delta= 1.28D-09
 
 Alpha:                 0.19532     0.81920     2.85917     9.50073    35.69989   197.79328
 Coeff:                 0.27070     0.30552     0.18297     0.10986     0.06810     0.04224
 

 All pairs explicitly correlated. Number of r12-pairs:           78
 
 AO(A)-basis ORBITAL           loaded. Number of functions:     230
 RI(R)-basis CC-PVTZ/JKFIT     loaded. Number of functions:     376
 DF-basis CC-PVTZ/JKFIT        loaded. Number of functions:     376

 Screening thresholds:   THRAO=  1.00D-10  THRMO=  1.00D-09  THRPROD=  1.00D-09
                         THRSW=  1.00D-05  THROV=  1.00D-12  THRF12=   1.00D-08

 CPU time for Fock operators                      0.74 sec
 
 Construction of ABS:
 Smallest eigenvalue of S          2.58E-04  (threshold= 1.00E-08)
 Ratio eigmin/eigmax               1.84E-06  (threshold= 1.00E-09)
 Smallest eigenvalue of S kept     2.58E-04  (threshold= 2.58E-04, 0 functions deleted, 376 kept)
 
 Construction of CABS:
 Smallest eigenvalue of S          2.30E-08  (threshold= 1.00E-08)
 Ratio eigmin/eigmax               2.30E-08  (threshold= 1.00E-09)
 Smallest eigenvalue of S kept     2.30E-08  (threshold= 2.30E-08, 0 functions deleted, 376 kept)
 
 CPU time for CABS singles                        0.17 sec

 CABS-singles contribution of  -0.01593251 patched into reference energy.
 New reference energy        -263.78493845
 
 AO(A)-basis ORBITAL           loaded. Number of functions:     230
 RI(R)-basis CC-PVTZ/JKFIT     loaded. Number of functions:     376
 DF-basis AUG-CC-PVTZ/MP2FIT   loaded. Number of functions:     516

 Screening thresholds:   THRAO=  1.00D-10  THRMO=  1.00D-09  THRPROD=  1.00D-09
                         THRSW=  1.00D-05  THROV=  1.00D-12  THRF12=   1.00D-08

 CPU time for 3-index integral evaluation         1.96 sec
 CPU time for first  half transformation          0.27 sec ( 9302.2 MFLOP/sec)
 CPU time for second half transformation          0.02 sec ( 4889.4 MFLOP/sec)
 CPU time for sorting                             0.15 sec
 CPU time for fitting                             0.06 sec (23217.5 MFLOP/sec)
 CPU time for tilde quantities                    0.08 sec (23111.0 MFLOP/sec)
 CPU time for assembly                            0.82 sec (28814.4 MFLOP/sec)
 CPU time for tranop_f12                          0.91 sec (33052.3 MFLOP/sec)
 CPU time for f12 integrals (total)               6.32 sec
 F12-matrices built in  3 passes.
 F12-matrices built in  3 passes.
 F12-matrices built in  3 passes.
 F12-matrices built in  3 passes.
 FC-matrix built in  3 passes.
 CPU time for f12 matrices (total)                0.51 sec

 Diagonal F12 approximation with fixed coefficients:  TSING= 0.500,  TTRIP= 0.250 (scaled by -1/beta)

 DF-MP2-F12 energy corrections:
 ------------------------------
 Approx.                                    Singlet             Triplet             Total
 DF-MP2-F12/3*C(DX,FIX)                -0.097437895602     -0.016932630333     -0.114370525935
 DF-MP2-F12/3*C(FIX)                   -0.079847579932     -0.013393907701     -0.093241487633
 DF-MP2-F12/3C(FIX)                    -0.080209084605     -0.013417844261     -0.093626928866

 DF-MP2-F12 correlation energies:
 --------------------------------
 Approx.                                    Singlet             Triplet             Ecorr            Total Energy
 DF-MP2                                -0.537821185398     -0.343164118873     -0.880985304271   -264.665923756701
 DF-MP2-F12/3*C(DX,FIX)                -0.635259081000     -0.360096749205     -0.995355830205   -264.780294282636
 DF-MP2-F12/3*C(FIX)                   -0.617668765330     -0.356558026574     -0.974226791904   -264.759165244334
 DF-MP2-F12/3C(FIX)                    -0.618030270003     -0.356581963133     -0.974612233137   -264.759550685567

 SCS-DF-MP2 energies (F_SING= 1.20000  F_TRIP= 0.62222  F_PARALLEL= 0.33333):
 ----------------------------------------------------------------------------
 SCS-DF-MP2                            -0.858909763110   -264.643848215540
 SCS-DF-MP2-F12/3*C(DX,FIX)            -0.986371096706   -264.771309549136
 SCS-DF-MP2-F12/3*C(FIX)               -0.963060846042   -264.747999298472
 SCS-DF-MP2-F12/3C(FIX)                -0.963509545509   -264.748447997940
 Symmetry transformation completed.

 Number of N-1 electron functions:              12
 Number of N-2 electron functions:              78
 Number of singly external CSFs:              2568
 Number of doubly external CSFs:           3298596
 Total number of CSFs:                     3301165

 Pair and operator lists are different

 Length of J-op  integral file:             474.22 MB
 Length of K-op  integral file:             572.29 MB
 Length of 3-ext integral record:             0.00 MB

 For full I/O caching in triples, increase memory by 50.81 Mwords to 151.09 Mwords.

 Integral transformation finished. Total CPU:  18.36 sec, npass=  1  Memory used:  87.46 MW

 Reference energy:                   -263.78493845

 Adding F12 terms to K(Cij), methodcc=6,  factor=1.0

 ITER.      SQ.NORM     CORR.ENERGY   TOTAL ENERGY   ENERGY CHANGE        DEN1      VAR(S)    VAR(P)  DIIS     TIME
   1      1.20219172    -0.86290652  -264.64784498     0.01809507     0.04676824  0.72D-02  0.56D-02  1  1    35.32
   2      1.21652021    -0.85866488  -264.64360334     0.00424164    -0.02017605  0.86D-04  0.59D-03  2  2    51.36
   3      1.22188477    -0.85875994  -264.64369840    -0.00009506    -0.00236169  0.13D-03  0.32D-04  3  3    59.13
   4      1.22469213    -0.85863123  -264.64356968     0.00012871    -0.00141291  0.76D-05  0.41D-05  4  4    67.15
   5      1.22572586    -0.85859324  -264.64353169     0.00003799    -0.00036753  0.56D-06  0.29D-06  5  5    80.70
   6      1.22588866    -0.85856629  -264.64350475     0.00002694    -0.00000807  0.40D-07  0.24D-07  6  6    88.29
   7      1.22591819    -0.85856385  -264.64350230     0.00000245    -0.00000622  0.27D-08  0.41D-08  6  4    96.80
   8      1.22591856    -0.85856335  -264.64350180     0.00000050     0.00000193  0.40D-09  0.28D-09  6  1   106.57
   9      1.22591915    -0.85856341  -264.64350187    -0.00000007     0.00000058  0.28D-10  0.22D-10  6  2   119.26

 Norm of t1 vector:      0.10607730      S-energy:     0.00000060      T1 diagnostic:  0.01531094
                                                                       D1 diagnostic:  0.04500415

 Adding energy correction from Wij-K(Fij), methodcc=6  factor=1.0
 
  CCSD correlation energy              -0.858563414917
  MP2-F12 correction (uncoupled)       -0.092468101270
  C*T doubles correction               -0.001477717726
  f12b correction                       0.015404807240


 Total CPU time for triples:    209.08 sec


 RESULTS
 =======

  Reference energy                   -263.769005938699
  F12 singles correction               -0.015932513732

 F12 singles corrections added to reference energy

  New reference energy               -263.784938452431

  F12a singlet correction              -0.080409871000
  F12a triplet correction              -0.013535947996
  F12a total correction                -0.093945818996

 F12a corrections for ansatz F12/3C(FIX) added to CCSD energy
 
  CCSD-F12a singlet pair energy        -0.641951343713
  CCSD-F12a triplet pair energy        -0.310558494196
  CCSD-F12a correlation energy         -0.952509233913

  Triples (T) contribution             -0.037667297095
  Total correlation energy             -0.990176531009

  CCSD-F12a total energy             -264.737447686344
  CCSD[T]-F12a energy                -264.777664610020
  CCSD-T-F12a energy                 -264.774175411795
 !CCSD(T)-F12a total energy          -264.775114983439

 F12b corrections for ansatz F12/3C(FIX) added to CCSD(T)-F12a energy

  CCSD-F12b singlet pair energy        -0.627769654008
  CCSD-F12b triplet pair energy        -0.309335376660
  CCSD-F12b correlation energy         -0.937104426673

  Triples (T) contribution             -0.037667297095
  Total correlation energy             -0.974771723768

  CCSD-F12b total energy             -264.722042879104
  CCSD[T]-F12b energy                -264.762259802779
  CCSD-T-F12b energy                 -264.758770604554
 !CCSD(T)-F12b total energy          -264.759710176199

 Timing summary (sec):

 STEP                 CPU(USER)    SYS     CPU(TOT)    WALL
 Transformation         18.46      6.52     24.98     29.11
 CCSD iterations        92.51     10.76    103.27    138.13
 Triples               209.08      3.00    212.08    235.42
 MP2-F12                 8.31      1.30      9.61     10.14
 F12b energy             5.01      0.06      5.07      5.07

 Program statistics:

 Available memory in ccsd:                99998934
 Min. memory needed in ccsd:               8644845
 Max. memory used in ccsd:                11598633
 Max. memory used in cckext:               8768967 (10 integral passes)



 **********************************************************************************************************************************
 DATASETS  * FILE   NREC   LENGTH (MB)   RECORD NAMES
              1      20      527.84       500      610      700      900      950      970     1000      129      960     1100   
                                          VAR    BASINP    GEOM    SYMINP    ZMAT    AOBASIS   BASIS     P2S    ABASIS      S 
                                         1400     1410     1200     1210     1080     1600     1650     1700      960(1)  1380   
                                           T        V       H0       H01     AOSYM     SMH    MOLCAS    OPER    ABASIS    JKOP   

              2       5        2.50       700     1000     2100     7360     7350   
                                         GEOM     BASIS     RHF    F12ABS    EF12   

 PROGRAMS   *        TOTAL   CCSD(T)        HF       INT
 CPU TIMES  *       352.84    333.50      9.12     10.14
 REAL TIME  *       448.17 SEC
 DISK USED  *         2.75 GB      
 SF USED    *         1.91 GB      
 GA USED    *         2.40 MB       (max)       0.00 MB       (current)
 **********************************************************************************************************************************

     CCSD(T)-F12        HF-SCF  
   -264.75971018   -263.76900594
 **********************************************************************************************************************************
 Variable memory released
