
 Primary working directories    : /scratch/kee
 Secondary working directories  : /scratch/kee
 Wavefunction directory         : /home/kee/wfu/
 Main file repository           : /scratch/kee/

 ARCHNAME  : Linux/x86_64
 FC        : /opt/intel/composer_xe_2015.0.090/bin/intel64/ifort
 FCVERSION : 15.0.0
 BLASLIB   : -L/opt/intel/mkl/lib/intel64 -lmkl_intel_ilp64 -lmkl_sequential -lmkl_core
 id        : emory

 Nodes     nprocs
 node16       3
 Number of processes for MPI-2 version of Molpro:   nprocs(total)=    4   nprocs(compute)=    3   nprocs(helper)=    1
 ga_uses_ma=false, calling ma_init with nominal heap.
 GA-space will be limited to   8.0 MW (determined by -G option)

 Using customized tuning parameters: mindgm=7; mindgv=32; mindgc=1; mindgr=1; noblas=0; mincuda=1000; minvec=7
 default implementation of scratch files=sf  

 ***,co2h2o
 memory,100,m
 basis avtz
 geomtype = xyz
 geometry = {
 6
       0.00000777
 O    10.97257393   -1.10347931    0.00000000
 O    11.76744404    1.08065151   -0.00000000
 O     4.29356282    0.00000000    0.00000000
 H     3.54556774    0.58340495    0.10287003
 H     5.04598802    0.58686026    0.10347930
 C    11.34356282    0.00000000    0.00000000
 }
 hf
 ccsd(t)-f12
 ---

 Variables initialized (665), CPU time= 0.00 sec
 Commands  initialized (462), CPU time= 0.01 sec, 486 directives.
 Default parameters read. Elapsed time= 0.03 sec

 Checking input...
 Passed
1


                                         ***  PROGRAM SYSTEM MOLPRO  ***
                         Copyright, University College Cardiff Consultants Limited, 2008

                                    Version 2010.1 linked 9 Dec 2014 15:06:28 


 **********************************************************************************************************************************
 LABEL *   co2h2o                                                                        
 Linux-2.6.32-504.el6.x86_64/node16(x86_64) 64 bit mpp version                           DATE: 18-Jan-17          TIME: 23:29:38  
 **********************************************************************************************************************************

 Patch level:      19
 **********************************************************************************************************************************

 Variable memory set to  100000000 words,  buffer space   230000 words

 SETTING BASIS          =    AVTZ
 SETTING GEOMTYPE       =    XYZ

Geometry recognized as XYZ



 Recomputing integrals since basis changed


 Using spherical harmonics

 Library entry O      S aug-cc-pVTZ          selected for orbital group  1
 Library entry O      P aug-cc-pVTZ          selected for orbital group  1
 Library entry O      D aug-cc-pVTZ          selected for orbital group  1
 Library entry O      F aug-cc-pVTZ          selected for orbital group  1
 Library entry H      S aug-cc-pVTZ          selected for orbital group  2
 Library entry H      P aug-cc-pVTZ          selected for orbital group  2
 Library entry H      D aug-cc-pVTZ          selected for orbital group  2
 Library entry C      S aug-cc-pVTZ          selected for orbital group  3
 Library entry C      P aug-cc-pVTZ          selected for orbital group  3
 Library entry C      D aug-cc-pVTZ          selected for orbital group  3
 Library entry C      F aug-cc-pVTZ          selected for orbital group  3

1PROGRAM * SEWARD (Integral evaluation for generally contracted gaussian basis sets)     Author: Roland Lindh, 1990

 Geometry written to block  1 of record 700


 Point group  C1  



 ATOMIC COORDINATES

 NR  ATOM    CHARGE       X              Y              Z

   1  O       8.00   20.735159684   -2.085273688    0.000000000
   2  O       8.00   22.237246502    2.042135397    0.000000000
   3  O       8.00    8.113657858    0.000000000    0.000000000
   4  H       1.00    6.700152009    1.102475579    0.194396184
   5  H       1.00    9.535535420    1.109005169    0.195547537
   6  C       6.00   21.436227084    0.000000000    0.000000000

 Bond lengths in Bohr (Angstrom)

 1-6  2.199968602  2-6  2.193615529  3-4  1.803119814  3-5  1.813799081
     (1.164173245)     (1.160811343)     (0.954169911)     (0.959821135)

 Bond angles

  1-6-2  177.16520951   4-3-5  103.24222917

 NUCLEAR CHARGE:                   32
 NUMBER OF PRIMITIVE AOS:         322
 NUMBER OF SYMMETRY AOS:          282
 NUMBER OF CONTRACTIONS:          230   ( 230A   )
 NUMBER OF CORE ORBITALS:           4   (   4A   )
 NUMBER OF VALENCE ORBITALS:       18   (  18A   )


 NUCLEAR REPULSION ENERGY   83.85451665


 Eigenvalues of metric

         1 0.348E-03 0.365E-03 0.385E-03 0.396E-03 0.900E-03 0.923E-03 0.162E-02 0.175E-02


 Contracted 2-electron integrals neglected if value below      1.0D-11
 AO integral compression algorithm  1   Integral accuracy      1.0D-11

     516.424 MB (compressed) written to integral file ( 17.8%)

     Node minimum: 150.733 MB, node maximum: 187.433 MB


 NUMBER OF SORTED TWO-ELECTRON INTEGRALS:  117629820.     BUFFER LENGTH:  32768
 NUMBER OF SEGMENTS:   8  SEGMENT LENGTH:   15997437      RECORD LENGTH: 524288

 Memory used in sort:      16.55 MW

 SORT1 READ   363528484. AND WROTE    37104826. INTEGRALS IN    110 RECORDS. CPU TIME:     8.65 SEC, REAL TIME:     9.13 SEC
 SORT2 READ   111008277. AND WROTE   352862895. INTEGRALS IN   2145 RECORDS. CPU TIME:     1.27 SEC, REAL TIME:     1.65 SEC

 Node minimum:   117612110.  Node maximum:   117629820. integrals

 OPERATOR DM      FOR CENTER  0  COORDINATES:    0.000000    0.000000    0.000000


 **********************************************************************************************************************************
 DATASETS  * FILE   NREC   LENGTH (MB)   RECORD NAMES
              1      18        4.62       500      610      700      900      950      970     1000      129      960     1100   
                                          VAR    BASINP    GEOM    SYMINP    ZMAT    AOBASIS   BASIS     P2S    ABASIS      S 
                                         1400     1410     1200     1210     1080     1600     1650     1700   
                                           T        V       H0       H01     AOSYM     SMH    MOLCAS    OPER   

 PROGRAMS   *        TOTAL       INT
 CPU TIMES  *        13.16     13.09
 REAL TIME  *        23.02 SEC
 DISK USED  *         1.82 GB      
 GA USED    *         0.00 MB       (max)       0.00 MB       (current)
 **********************************************************************************************************************************

1PROGRAM * RHF-SCF (CLOSED SHELL)       Authors: W. Meyer, H.-J. Werner


 NUMBER OF ELECTRONS:      16+   16-    SPACE SYMMETRY=1    SPIN SYMMETRY=Singlet 
 CONVERGENCE THRESHOLDS:    1.00E-05 (Density)    1.00E-07 (Energy)
 MAX. NUMBER OF ITERATIONS:       60
 INTERPOLATION TYPE:            DIIS
 INTERPOLATION STEPS:              2 (START)      1 (STEP)
 LEVEL SHIFTS:                  0.00 (CLOSED)  0.00 (OPEN) 



 Orbital guess generated from atomic densities. Full valence occupancy:   22

 Molecular orbital dump at record        2100.2

 ITERATION    DDIFF          GRAD             ENERGY        2-EL.EN.            DIPOLE MOMENTS         DIIS
    1      0.000D+00      0.000D+00      -263.65922789    363.046826   -0.06885    1.17032    0.19888    0
    2      0.000D+00      0.470D-02      -263.72479083    358.545901   -0.01361    0.66263    0.11640    1
    3      0.752D-02      0.319D-02      -263.76845932    361.093598   -0.03372    0.79331    0.13615    2
    4      0.310D-02      0.300D-03      -263.76895626    360.880391   -0.03336    0.79453    0.13704    3
    5      0.356D-03      0.876D-04      -263.76901493    360.883848   -0.03276    0.79123    0.13605    4
    6      0.134D-03      0.356D-04      -263.76902225    360.898166   -0.03307    0.79067    0.13620    5
    7      0.444D-04      0.886D-05      -263.76902300    360.890146   -0.03286    0.79091    0.13612    6
    8      0.146D-04      0.232D-05      -263.76902305    360.891044   -0.03302    0.79049    0.13612    7
    9      0.407D-05      0.156D-05      -263.76902306    360.891231   -0.03290    0.79082    0.13612    0

 Final occupancy:  16

 !RHF STATE 1.1 Energy               -263.769023055495
 Nuclear energy                        83.85451665
 One-electron energy                 -528.06915501
 Two-electron energy                  180.44561531
 Virial quotient                       -1.00179791
 !RHF STATE 1.1 Dipole moment          -0.03289955     0.79082417     0.13612202
 Dipole moment /Debye                  -0.08361685     2.00994290     0.34596500

 Orbital energies:

         1.1          2.1          3.1          4.1          5.1          6.1          7.1          8.1          9.1         10.1
    -20.654795   -20.653451   -20.568471   -11.462950    -1.531652    -1.478319    -1.355435    -0.801943    -0.744012    -0.716270

        11.1         12.1         13.1         14.1         15.1         16.1         17.1         18.1
     -0.715675    -0.715654    -0.588220    -0.545326    -0.545285    -0.511507     0.026593     0.041022


 **********************************************************************************************************************************
 DATASETS  * FILE   NREC   LENGTH (MB)   RECORD NAMES
              1      18        4.62       500      610      700      900      950      970     1000      129      960     1100   
                                          VAR    BASINP    GEOM    SYMINP    ZMAT    AOBASIS   BASIS     P2S    ABASIS      S 
                                         1400     1410     1200     1210     1080     1600     1650     1700   
                                           T        V       H0       H01     AOSYM     SMH    MOLCAS    OPER   

              2       3        1.44       700     1000     2100   
                                         GEOM     BASIS     RHF  

 PROGRAMS   *        TOTAL        HF       INT
 CPU TIMES  *        22.07      8.91     13.09
 REAL TIME  *        38.36 SEC
 DISK USED  *         1.85 GB      
 SF USED    *         0.21 MB      
 GA USED    *         0.00 MB       (max)       0.00 MB       (current)
 **********************************************************************************************************************************


1PROGRAM * CCSD (Closed-shell coupled cluster)     Authors: C. Hampel, H.-J. Werner, 1991, M. Deegan, P.J. Knowles, 1992

                                  CCSD-F12 implementation by  H.-J. Werner, 2007

                   Density fitting integral evaluation by F.R. Manby, 2003,2007, G. Knizia, 2010

 Basis set CC-PVTZ/JKFIT generated.      Number of basis functions:   376 
 Basis set AUG-CC-PVTZ/MP2FIT generated. Number of basis functions:   516 

 Convergence thresholds:  THRVAR = 1.00D-08  THRDEN = 1.00D-06

 CCSD(T)     terms to be evaluated (factor= 1.000)


 Number of core orbitals:           4 (   4 )
 Number of closed-shell orbitals:  12 (  12 )
 Number of external orbitals:     214 ( 214 )

 Molecular orbitals read from record     2100.2  Type=RHF/CANONICAL (state 1.1)

 MP2-F12 correlation treatment (H.-J. Werner, 2006)
 --------------------------------------------------

 Using MP2-F12 with ansatz 3C(FIX)

 Using projected zeroth-order Hamiltonian (+Z)

 FOCKRIB=T FOCKRIC=T FOCKRIP=T CABSP=T CABSA=T CABSK=T CABSF=T GBC=F EBC=F DMAT=T NOFIK=T NOPAO=1 SOLVE=-1  USEPAO=0
 EXCH_A= T EXCH_B= F EXCH_C= F EXCH_P= F
 
 Geminal basis:    OPTFULL  GEM_TYPE=SLATER  BETA=1.0  NGEM=6

 Optimizing Gaussian exponents for each gem_beta

 Geminal optimization for beta= 1.0000
 Weight function:   m=0, omega= 1.4646

 Augmented Hessian optimization of geminal fit. Trust ratio= 0.40000
 Convergence reached after   2 iterations. Final gradient= 8.24D-16, Step= 4.32D-06, Delta= 1.28D-09
 
 Alpha:                 0.19532     0.81920     2.85917     9.50073    35.69989   197.79328
 Coeff:                 0.27070     0.30552     0.18297     0.10986     0.06810     0.04224
 

 All pairs explicitly correlated. Number of r12-pairs:           78
 
 AO(A)-basis ORBITAL           loaded. Number of functions:     230
 RI(R)-basis CC-PVTZ/JKFIT     loaded. Number of functions:     376
 DF-basis CC-PVTZ/JKFIT        loaded. Number of functions:     376

 Screening thresholds:   THRAO=  1.00D-10  THRMO=  1.00D-09  THRPROD=  1.00D-09
                         THRSW=  1.00D-05  THROV=  1.00D-12  THRF12=   1.00D-08

 CPU time for Fock operators                      0.88 sec
 
 Construction of ABS:
 Smallest eigenvalue of S          2.58E-04  (threshold= 1.00E-08)
 Ratio eigmin/eigmax               1.84E-06  (threshold= 1.00E-09)
 Smallest eigenvalue of S kept     2.58E-04  (threshold= 2.58E-04, 0 functions deleted, 376 kept)
 
 Construction of CABS:
 Smallest eigenvalue of S          2.30E-08  (threshold= 1.00E-08)
 Ratio eigmin/eigmax               2.30E-08  (threshold= 1.00E-09)
 Smallest eigenvalue of S kept     2.30E-08  (threshold= 2.30E-08, 0 functions deleted, 376 kept)
 
 CPU time for CABS singles                        0.16 sec

 CABS-singles contribution of  -0.01593232 patched into reference energy.
 New reference energy        -263.78495537
 
 AO(A)-basis ORBITAL           loaded. Number of functions:     230
 RI(R)-basis CC-PVTZ/JKFIT     loaded. Number of functions:     376
 DF-basis AUG-CC-PVTZ/MP2FIT   loaded. Number of functions:     516

 Screening thresholds:   THRAO=  1.00D-10  THRMO=  1.00D-09  THRPROD=  1.00D-09
                         THRSW=  1.00D-05  THROV=  1.00D-12  THRF12=   1.00D-08

 CPU time for 3-index integral evaluation         1.97 sec
 CPU time for first  half transformation          0.24 sec (11282.4 MFLOP/sec)
 CPU time for second half transformation          0.04 sec ( 2450.4 MFLOP/sec)
 CPU time for sorting                             0.15 sec
 CPU time for fitting                             0.04 sec (34826.3 MFLOP/sec)
 CPU time for tilde quantities                    0.07 sec (26412.6 MFLOP/sec)
 CPU time for assembly                            0.82 sec (28601.9 MFLOP/sec)
 CPU time for tranop_f12                          0.93 sec (32733.7 MFLOP/sec)
 CPU time for f12 integrals (total)               6.35 sec
 F12-matrices built in  3 passes.
 F12-matrices built in  3 passes.
 F12-matrices built in  3 passes.
 F12-matrices built in  3 passes.
 FC-matrix built in  3 passes.
 CPU time for f12 matrices (total)                0.51 sec

 Diagonal F12 approximation with fixed coefficients:  TSING= 0.500,  TTRIP= 0.250 (scaled by -1/beta)

 DF-MP2-F12 energy corrections:
 ------------------------------
 Approx.                                    Singlet             Triplet             Total
 DF-MP2-F12/3*C(DX,FIX)                -0.097438723081     -0.016932759272     -0.114371482354
 DF-MP2-F12/3*C(FIX)                   -0.079848391891     -0.013394034506     -0.093242426397
 DF-MP2-F12/3C(FIX)                    -0.080209838899     -0.013417946000     -0.093627784899

 DF-MP2-F12 correlation energies:
 --------------------------------
 Approx.                                    Singlet             Triplet             Ecorr            Total Energy
 DF-MP2                                -0.537817296767     -0.343159748134     -0.880977044901   -264.665932419363
 DF-MP2-F12/3*C(DX,FIX)                -0.635256019849     -0.360092507406     -0.995348527255   -264.780303901717
 DF-MP2-F12/3*C(FIX)                   -0.617665688658     -0.356553782639     -0.974219471298   -264.759174845760
 DF-MP2-F12/3C(FIX)                    -0.618027135666     -0.356577694134     -0.974604829800   -264.759560204262

 SCS-DF-MP2 energies (F_SING= 1.20000  F_TRIP= 0.62222  F_PARALLEL= 0.33333):
 ----------------------------------------------------------------------------
 SCS-DF-MP2                            -0.858902377182   -264.643857751644
 SCS-DF-MP2-F12/3*C(DX,FIX)            -0.986364783982   -264.771320158444
 SCS-DF-MP2-F12/3*C(FIX)               -0.963054513365   -264.748009887827
 SCS-DF-MP2-F12/3C(FIX)                -0.963503128038   -264.748458502500
 Symmetry transformation completed.

 Number of N-1 electron functions:              12
 Number of N-2 electron functions:              78
 Number of singly external CSFs:              2568
 Number of doubly external CSFs:           3298596
 Total number of CSFs:                     3301165

 Pair and operator lists are different

 Length of J-op  integral file:             474.22 MB
 Length of K-op  integral file:             572.29 MB
 Length of 3-ext integral record:             0.00 MB

 For full I/O caching in triples, increase memory by 50.81 Mwords to 151.09 Mwords.

 Integral transformation finished. Total CPU:  12.38 sec, npass=  1  Memory used:  87.46 MW

 Reference energy:                   -263.78495537

 Adding F12 terms to K(Cij), methodcc=6,  factor=1.0

 ITER.      SQ.NORM     CORR.ENERGY   TOTAL ENERGY   ENERGY CHANGE        DEN1      VAR(S)    VAR(P)  DIIS     TIME
   1      1.20218866    -0.86289955  -264.64785493     0.01809379     0.04676584  0.72D-02  0.56D-02  1  1    28.90
   2      1.21651654    -0.85865820  -264.64361357     0.00424136    -0.02017528  0.86D-04  0.59D-03  2  2    37.12
   3      1.22188099    -0.85875328  -264.64370865    -0.00009508    -0.00236171  0.13D-03  0.32D-04  3  3    45.39
   4      1.22468824    -0.85862458  -264.64357995     0.00012870    -0.00141287  0.76D-05  0.41D-05  4  4    53.62
   5      1.22572189    -0.85858659  -264.64354196     0.00003799    -0.00036751  0.56D-06  0.29D-06  5  5    61.98
   6      1.22588468    -0.85855965  -264.64351502     0.00002694    -0.00000807  0.40D-07  0.24D-07  6  6    73.47
   7      1.22591421    -0.85855720  -264.64351258     0.00000245    -0.00000622  0.27D-08  0.41D-08  6  4    81.54
   8      1.22591457    -0.85855670  -264.64351208     0.00000050     0.00000193  0.40D-09  0.28D-09  6  1    90.99
   9      1.22591517    -0.85855677  -264.64351214    -0.00000007     0.00000058  0.28D-10  0.22D-10  6  2   100.92

 Norm of t1 vector:      0.10607563      S-energy:     0.00000057      T1 diagnostic:  0.01531070
                                                                       D1 diagnostic:  0.04500461

 Adding energy correction from Wij-K(Fij), methodcc=6  factor=1.0
 
  CCSD correlation energy              -0.858556769486
  MP2-F12 correction (uncoupled)       -0.092469034974
  C*T doubles correction               -0.001477686865
  f12b correction                       0.015404855590


 Total CPU time for triples:    325.56 sec


 RESULTS
 =======

  Reference energy                   -263.769023055495
  F12 singles correction               -0.015932318967

 F12 singles corrections added to reference energy

  New reference energy               -263.784955374462

  F12a singlet correction              -0.080410652390
  F12a triplet correction              -0.013536069448
  F12a total correction                -0.093946721839

 F12a corrections for ansatz F12/3C(FIX) added to CCSD energy
 
  CCSD-F12a singlet pair energy        -0.641948661927
  CCSD-F12a triplet pair energy        -0.310555394987
  CCSD-F12a correlation energy         -0.952503491325

  Triples (T) contribution             -0.037666058950
  Total correlation energy             -0.990169550275

  CCSD-F12a total energy             -264.737458865787
  CCSD[T]-F12a energy                -264.777674425045
  CCSD-T-F12a energy                 -264.774185401669
 !CCSD(T)-F12a total energy          -264.775124924737

 F12b corrections for ansatz F12/3C(FIX) added to CCSD(T)-F12a energy

  CCSD-F12b singlet pair energy        -0.627766925469
  CCSD-F12b triplet pair energy        -0.309332275855
  CCSD-F12b correlation energy         -0.937098635734

  Triples (T) contribution             -0.037666058950
  Total correlation energy             -0.974764694685

  CCSD-F12b total energy             -264.722054010197
  CCSD[T]-F12b energy                -264.762269569455
  CCSD-T-F12b energy                 -264.758780546078
 !CCSD(T)-F12b total energy          -264.759720069147

 Timing summary (sec):

 STEP                 CPU(USER)    SYS     CPU(TOT)    WALL
 Transformation         12.50      5.39     17.89     21.09
 CCSD iterations        80.01      4.73     84.74    100.27
 Triples               325.56      6.08    331.64    336.27
 MP2-F12                 8.44      1.20      9.64      9.69
 F12b energy             5.20      0.07      5.27      5.26

 Program statistics:

 Available memory in ccsd:                99998934
 Min. memory needed in ccsd:               8644845
 Max. memory used in ccsd:                11598633
 Max. memory used in cckext:               8768967 (10 integral passes)



 **********************************************************************************************************************************
 DATASETS  * FILE   NREC   LENGTH (MB)   RECORD NAMES
              1      20      527.84       500      610      700      900      950      970     1000      129      960     1100   
                                          VAR    BASINP    GEOM    SYMINP    ZMAT    AOBASIS   BASIS     P2S    ABASIS      S 
                                         1400     1410     1200     1210     1080     1600     1650     1700      960(1)  1380   
                                           T        V       H0       H01     AOSYM     SMH    MOLCAS    OPER    ABASIS    JKOP   

              2       5        2.50       700     1000     2100     7360     7350   
                                         GEOM     BASIS     RHF    F12ABS    EF12   

 PROGRAMS   *        TOTAL   CCSD(T)        HF       INT
 CPU TIMES  *       453.89    431.82      8.91     13.09
 REAL TIME  *       511.33 SEC
 DISK USED  *         2.72 GB      
 SF USED    *         1.91 GB      
 GA USED    *         2.40 MB       (max)       0.00 MB       (current)
 **********************************************************************************************************************************

     CCSD(T)-F12        HF-SCF  
   -264.75972007   -263.76902306
 **********************************************************************************************************************************
 Variable memory released
