
 Primary working directories    : /scratch/kee
 Secondary working directories  : /scratch/kee
 Wavefunction directory         : /home/kee/wfu/
 Main file repository           : /scratch/kee/

 ARCHNAME  : Linux/x86_64
 FC        : /opt/intel/composer_xe_2015.0.090/bin/intel64/ifort
 FCVERSION : 15.0.0
 BLASLIB   : -L/opt/intel/mkl/lib/intel64 -lmkl_intel_ilp64 -lmkl_sequential -lmkl_core
 id        : emory

 Nodes     nprocs
 node23       3
 Number of processes for MPI-2 version of Molpro:   nprocs(total)=    4   nprocs(compute)=    3   nprocs(helper)=    1
 ga_uses_ma=false, calling ma_init with nominal heap.
 GA-space will be limited to   8.0 MW (determined by -G option)

 Using customized tuning parameters: mindgm=7; mindgv=32; mindgc=1; mindgr=1; noblas=0; mincuda=1000; minvec=7
 default implementation of scratch files=sf  

 ***,co2h2o
 memory,100,m
 basis avtz
 geomtype = xyz
 geometry = {
 3
       0.00000777
 O    -1.40643718    0.00000000    0.00000000
 H    -2.15443226    0.58340495    0.10287003
 H    -0.65401198    0.58686026    0.10347930
 }
 hf
 ccsd(t)-f12
 ---

 Variables initialized (665), CPU time= 0.01 sec
 Commands  initialized (462), CPU time= 0.00 sec, 486 directives.
 Default parameters read. Elapsed time= 0.04 sec

 Checking input...
 Passed
1


                                         ***  PROGRAM SYSTEM MOLPRO  ***
                         Copyright, University College Cardiff Consultants Limited, 2008

                                    Version 2010.1 linked 9 Dec 2014 15:06:28 


 **********************************************************************************************************************************
 LABEL *   co2h2o                                                                        
 Linux-2.6.32-504.el6.x86_64/node23(x86_64) 64 bit mpp version                           DATE: 18-Jan-17          TIME: 20:55:26  
 **********************************************************************************************************************************

 Patch level:      19
 **********************************************************************************************************************************

 Variable memory set to  100000000 words,  buffer space   230000 words

 SETTING BASIS          =    AVTZ
 SETTING GEOMTYPE       =    XYZ

Geometry recognized as XYZ



 Recomputing integrals since basis changed


 Using spherical harmonics

 Library entry O      S aug-cc-pVTZ          selected for orbital group  1
 Library entry O      P aug-cc-pVTZ          selected for orbital group  1
 Library entry O      D aug-cc-pVTZ          selected for orbital group  1
 Library entry O      F aug-cc-pVTZ          selected for orbital group  1
 Library entry H      S aug-cc-pVTZ          selected for orbital group  2
 Library entry H      P aug-cc-pVTZ          selected for orbital group  2
 Library entry H      D aug-cc-pVTZ          selected for orbital group  2

1PROGRAM * SEWARD (Integral evaluation for generally contracted gaussian basis sets)     Author: Roland Lindh, 1990

 Geometry written to block  1 of record 700


 Point group  C1  



 ATOMIC COORDINATES

 NR  ATOM    CHARGE       X              Y              Z

   1  O       8.00   -2.657781091    0.000000000    0.000000000
   2  H       1.00   -4.071286940    1.102475579    0.194396184
   3  H       1.00   -1.235903529    1.109005169    0.195547537

 Bond lengths in Bohr (Angstrom)

 1-2  1.803119814  1-3  1.813799081
     (0.954169911)     (0.959821135)

 Bond angles

  2-1-3  103.24222917

 NUCLEAR CHARGE:                   10
 NUMBER OF PRIMITIVE AOS:         121
 NUMBER OF SYMMETRY AOS:          108
 NUMBER OF CONTRACTIONS:           92   (  92A   )
 NUMBER OF CORE ORBITALS:           1   (   1A   )
 NUMBER OF VALENCE ORBITALS:        6   (   6A   )


 NUCLEAR REPULSION ENERGY    9.20007140


 Eigenvalues of metric

         1 0.385E-03 0.395E-03 0.164E-02 0.186E-02 0.319E-02 0.499E-02 0.559E-02 0.596E-02


 Contracted 2-electron integrals neglected if value below      1.0D-11
 AO integral compression algorithm  1   Integral accuracy      1.0D-11

     50.594 MB (compressed) written to integral file ( 52.8%)

     Node minimum: 15.729 MB, node maximum: 17.826 MB


 NUMBER OF SORTED TWO-ELECTRON INTEGRALS:    3052353.     BUFFER LENGTH:  32768
 NUMBER OF SEGMENTS:   1  SEGMENT LENGTH:    3052353      RECORD LENGTH: 524288

 Memory used in sort:       3.61 MW

 SORT1 READ    11938930. AND WROTE     2854920. INTEGRALS IN      9 RECORDS. CPU TIME:     0.16 SEC, REAL TIME:     0.21 SEC
 SORT2 READ     8559467. AND WROTE     9152781. INTEGRALS IN    195 RECORDS. CPU TIME:     0.06 SEC, REAL TIME:     0.10 SEC

 Node minimum:     3049501.  Node maximum:     3052353. integrals

 OPERATOR DM      FOR CENTER  0  COORDINATES:    0.000000    0.000000    0.000000


 **********************************************************************************************************************************
 DATASETS  * FILE   NREC   LENGTH (MB)   RECORD NAMES
              1      18        2.91       500      610      700      900      950      970     1000      129      960     1100   
                                          VAR    BASINP    GEOM    SYMINP    ZMAT    AOBASIS   BASIS     P2S    ABASIS      S 
                                         1400     1410     1200     1210     1080     1600     1650     1700   
                                           T        V       H0       H01     AOSYM     SMH    MOLCAS    OPER   

 PROGRAMS   *        TOTAL       INT
 CPU TIMES  *         0.79      0.72
 REAL TIME  *         1.33 SEC
 DISK USED  *       153.07 MB      
 GA USED    *         0.00 MB       (max)       0.00 MB       (current)
 **********************************************************************************************************************************

1PROGRAM * RHF-SCF (CLOSED SHELL)       Authors: W. Meyer, H.-J. Werner


 NUMBER OF ELECTRONS:       5+    5-    SPACE SYMMETRY=1    SPIN SYMMETRY=Singlet 
 CONVERGENCE THRESHOLDS:    1.00E-05 (Density)    1.00E-07 (Energy)
 MAX. NUMBER OF ITERATIONS:       60
 INTERPOLATION TYPE:            DIIS
 INTERPOLATION STEPS:              2 (START)      1 (STEP)
 LEVEL SHIFTS:                  0.00 (CLOSED)  0.00 (OPEN) 



 Orbital guess generated from atomic densities. Full valence occupancy:    7

 Molecular orbital dump at record        2100.2

 ITERATION    DDIFF          GRAD             ENERGY        2-EL.EN.            DIPOLE MOMENTS         DIIS
    1      0.000D+00      0.000D+00       -76.02253573     77.649761    0.00602    1.12788    0.19888    0
    2      0.000D+00      0.658D-02       -76.04943215     74.090372    0.00176    0.66620    0.11747    1
    3      0.111D-01      0.411D-02       -76.06028449     75.652334    0.00245    0.78085    0.13769    2
    4      0.393D-02      0.382D-03       -76.06046509     75.563649    0.00211    0.77752    0.13710    3
    5      0.506D-03      0.103D-03       -76.06048277     75.577380    0.00197    0.77636    0.13689    4
    6      0.154D-03      0.192D-04       -76.06048376     75.576665    0.00193    0.77623    0.13687    5
    7      0.365D-04      0.368D-05       -76.06048381     75.576777    0.00192    0.77616    0.13686    6
    8      0.970D-05      0.108D-05       -76.06048381     75.576717    0.00192    0.77613    0.13685    0

 Final occupancy:   5

 !RHF STATE 1.1 Energy                -76.060483809899
 Nuclear energy                         9.20007140
 One-electron energy                 -123.04891360
 Two-electron energy                   37.78835839
 Virial quotient                       -1.00129695
 !RHF STATE 1.1 Dipole moment           0.00191829     0.77613436     0.13685343
 Dipole moment /Debye                   0.00487548     1.97260758     0.34782394

 Orbital energies:

         1.1          2.1          3.1          4.1          5.1          6.1          7.1
    -20.567701    -1.354665    -0.715488    -0.587492    -0.510754     0.029364     0.047765


 **********************************************************************************************************************************
 DATASETS  * FILE   NREC   LENGTH (MB)   RECORD NAMES
              1      18        2.91       500      610      700      900      950      970     1000      129      960     1100   
                                          VAR    BASINP    GEOM    SYMINP    ZMAT    AOBASIS   BASIS     P2S    ABASIS      S 
                                         1400     1410     1200     1210     1080     1600     1650     1700   
                                           T        V       H0       H01     AOSYM     SMH    MOLCAS    OPER   

              2       3        0.47       700     1000     2100   
                                         GEOM     BASIS     RHF  

 PROGRAMS   *        TOTAL        HF       INT
 CPU TIMES  *         1.06      0.27      0.72
 REAL TIME  *         1.62 SEC
 DISK USED  *       166.66 MB      
 SF USED    *         0.03 MB      
 GA USED    *         0.00 MB       (max)       0.00 MB       (current)
 **********************************************************************************************************************************


1PROGRAM * CCSD (Closed-shell coupled cluster)     Authors: C. Hampel, H.-J. Werner, 1991, M. Deegan, P.J. Knowles, 1992

                                  CCSD-F12 implementation by  H.-J. Werner, 2007

                   Density fitting integral evaluation by F.R. Manby, 2003,2007, G. Knizia, 2010

 Basis set CC-PVTZ/JKFIT generated.      Number of basis functions:   139 
 Basis set AUG-CC-PVTZ/MP2FIT generated. Number of basis functions:   198 

 Convergence thresholds:  THRVAR = 1.00D-08  THRDEN = 1.00D-06

 CCSD(T)     terms to be evaluated (factor= 1.000)


 Number of core orbitals:           1 (   1 )
 Number of closed-shell orbitals:   4 (   4 )
 Number of external orbitals:      87 (  87 )

 Molecular orbitals read from record     2100.2  Type=RHF/CANONICAL (state 1.1)

 MP2-F12 correlation treatment (H.-J. Werner, 2006)
 --------------------------------------------------

 Using MP2-F12 with ansatz 3C(FIX)

 Using projected zeroth-order Hamiltonian (+Z)

 FOCKRIB=T FOCKRIC=T FOCKRIP=T CABSP=T CABSA=T CABSK=T CABSF=T GBC=F EBC=F DMAT=T NOFIK=T NOPAO=1 SOLVE=-1  USEPAO=0
 EXCH_A= T EXCH_B= F EXCH_C= F EXCH_P= F
 
 Geminal basis:    OPTFULL  GEM_TYPE=SLATER  BETA=1.0  NGEM=6

 Optimizing Gaussian exponents for each gem_beta

 Geminal optimization for beta= 1.0000
 Weight function:   m=0, omega= 1.4646

 Augmented Hessian optimization of geminal fit. Trust ratio= 0.40000
 Convergence reached after   2 iterations. Final gradient= 8.24D-16, Step= 4.32D-06, Delta= 1.28D-09
 
 Alpha:                 0.19532     0.81920     2.85917     9.50073    35.69989   197.79328
 Coeff:                 0.27070     0.30552     0.18297     0.10986     0.06810     0.04224
 

 All pairs explicitly correlated. Number of r12-pairs:           10
 
 AO(A)-basis ORBITAL           loaded. Number of functions:      92
 RI(R)-basis CC-PVTZ/JKFIT     loaded. Number of functions:     139
 DF-basis CC-PVTZ/JKFIT        loaded. Number of functions:     139

 Screening thresholds:   THRAO=  1.00D-10  THRMO=  1.00D-09  THRPROD=  1.00D-09
                         THRSW=  1.00D-05  THROV=  1.00D-12  THRF12=   1.00D-08

 CPU time for Fock operators                      0.09 sec
 
 Construction of ABS:
 Smallest eigenvalue of S          3.55E-04  (threshold= 1.00E-08)
 Ratio eigmin/eigmax               3.27E-06  (threshold= 1.00E-09)
 Smallest eigenvalue of S kept     3.55E-04  (threshold= 3.55E-04, 0 functions deleted, 139 kept)
 
 Construction of CABS:
 Smallest eigenvalue of S          4.96E-08  (threshold= 1.00E-08)
 Ratio eigmin/eigmax               4.96E-08  (threshold= 1.00E-09)
 Smallest eigenvalue of S kept     4.96E-08  (threshold= 4.96E-08, 0 functions deleted, 139 kept)
 
 CPU time for CABS singles                        0.02 sec

 CABS-singles contribution of  -0.00458642 patched into reference energy.
 New reference energy         -76.06507023
 
 AO(A)-basis ORBITAL           loaded. Number of functions:      92
 RI(R)-basis CC-PVTZ/JKFIT     loaded. Number of functions:     139
 DF-basis AUG-CC-PVTZ/MP2FIT   loaded. Number of functions:     198

 Screening thresholds:   THRAO=  1.00D-10  THRMO=  1.00D-09  THRPROD=  1.00D-09
                         THRSW=  1.00D-05  THROV=  1.00D-12  THRF12=   1.00D-08

 CPU time for 3-index integral evaluation         0.26 sec
 CPU time for first  half transformation          0.01 sec ( 5638.3 MFLOP/sec)
 CPU time for sorting                             0.02 sec
 CPU time for tilde quantities                    0.01 sec ( 3410.7 MFLOP/sec)
 CPU time for assembly                            0.01 sec (15222.2 MFLOP/sec)
 CPU time for tranop_f12                          0.01 sec (19136.8 MFLOP/sec)
 CPU time for f12 integrals (total)               0.45 sec
 F12-matrices built in  3 passes.
 F12-matrices built in  3 passes.
 F12-matrices built in  3 passes.
 F12-matrices built in  3 passes.
 FC-matrix built in  3 passes.
 CPU time for f12 matrices (total)                0.01 sec

 Diagonal F12 approximation with fixed coefficients:  TSING= 0.500,  TTRIP= 0.250 (scaled by -1/beta)

 DF-MP2-F12 energy corrections:
 ------------------------------
 Approx.                                    Singlet             Triplet             Total
 DF-MP2-F12/3*C(DX,FIX)                -0.029754462993     -0.004893922479     -0.034648385473
 DF-MP2-F12/3*C(FIX)                   -0.024453969639     -0.003801557041     -0.028255526680
 DF-MP2-F12/3C(FIX)                    -0.024571259876     -0.003791781231     -0.028363041107

 DF-MP2-F12 correlation energies:
 --------------------------------
 Approx.                                    Singlet             Triplet             Ecorr            Total Energy
 DF-MP2                                -0.170639871296     -0.097767408366     -0.268407279662    -76.333477511498
 DF-MP2-F12/3*C(DX,FIX)                -0.200394334289     -0.102661330846     -0.303055665135    -76.368125896971
 DF-MP2-F12/3*C(FIX)                   -0.195093840934     -0.101568965408     -0.296662806342    -76.361733038178
 DF-MP2-F12/3C(FIX)                    -0.195211131172     -0.101559189597     -0.296770320769    -76.361840552606

 SCS-DF-MP2 energies (F_SING= 1.20000  F_TRIP= 0.62222  F_PARALLEL= 0.33333):
 ----------------------------------------------------------------------------
 SCS-DF-MP2                            -0.265600899650    -76.330671131486
 SCS-DF-MP2-F12/3*C(DX,FIX)            -0.304351362562    -76.369421594398
 SCS-DF-MP2-F12/3*C(FIX)               -0.297311076486    -76.362381308322
 SCS-DF-MP2-F12/3C(FIX)                -0.297445742045    -76.362515973881
 Symmetry transformation completed.

 Number of N-1 electron functions:               4
 Number of N-2 electron functions:              10
 Number of singly external CSFs:               348
 Number of doubly external CSFs:             60726
 Total number of CSFs:                       61075

 Pair and operator lists are different

 Length of J-op  integral file:               8.56 MB
 Length of K-op  integral file:              14.10 MB
 Length of 3-ext integral record:             0.00 MB

 Memory could be reduced to 4.80 Mwords without degradation in triples

 Integral transformation finished. Total CPU:   0.15 sec, npass=  1  Memory used:   2.30 MW

 Reference energy:                    -76.06507023

 Adding F12 terms to K(Cij), methodcc=6,  factor=1.0

 ITER.      SQ.NORM     CORR.ENERGY   TOTAL ENERGY   ENERGY CHANGE        DEN1      VAR(S)    VAR(P)  DIIS     TIME
   1      1.06105037    -0.26824886   -76.33331909     0.00018092     0.00589054  0.74D-03  0.97D-03  1  1     0.85
   2      1.06427388    -0.26790340   -76.33297363     0.00034546    -0.00445131  0.12D-04  0.10D-03  2  2     0.92
   3      1.06539699    -0.26801335   -76.33308358    -0.00010995    -0.00076361  0.86D-05  0.53D-05  3  3     1.00
   4      1.06584638    -0.26804839   -76.33311862    -0.00003503    -0.00025902  0.36D-06  0.54D-06  4  4     1.06
   5      1.06592892    -0.26804514   -76.33311538     0.00000324    -0.00002465  0.13D-06  0.35D-07  5  5     1.14
   6      1.06595667    -0.26804326   -76.33311349     0.00000189    -0.00000397  0.10D-07  0.23D-08  6  6     1.21
   7      1.06596274    -0.26804286   -76.33311309     0.00000040    -0.00000130  0.75D-09  0.32D-09  6  1     1.28
   8      1.06596385    -0.26804297   -76.33311320    -0.00000012     0.00000015  0.83D-10  0.27D-10  6  2     1.35

 Norm of t1 vector:      0.03582106      S-energy:     0.00000003      T1 diagnostic:  0.00895527
                                                                       D1 diagnostic:  0.01778088

 Adding energy correction from Wij-K(Fij), methodcc=6  factor=1.0
 
  CCSD correlation energy              -0.268042970298
  MP2-F12 correction (uncoupled)       -0.028068322087
  C*T doubles correction               -0.000436388918
  f12b correction                       0.004749882306


 Total CPU time for triples:      0.49 sec


 RESULTS
 =======

  Reference energy                    -76.060483809899
  F12 singles correction               -0.004586421937

 F12 singles corrections added to reference energy

  New reference energy                -76.065070231836

  F12a singlet correction              -0.024655167059
  F12a triplet correction              -0.003849543946
  F12a total correction                -0.028504711005

 F12a corrections for ansatz F12/3C(FIX) added to CCSD energy
 
  CCSD-F12a singlet pair energy        -0.206073506396
  CCSD-F12a triplet pair energy        -0.090474206793
  CCSD-F12a correlation energy         -0.296547681303

  Triples (T) contribution             -0.008430251447
  Total correlation energy             -0.304977932750

  CCSD-F12a total energy              -76.361617913139
  CCSD[T]-F12a energy                 -76.370345978785
  CCSD-T-F12a energy                  -76.369926730997
 !CCSD(T)-F12a total energy           -76.370048164586

 F12b corrections for ansatz F12/3C(FIX) added to CCSD(T)-F12a energy

  CCSD-F12b singlet pair energy        -0.201685612865
  CCSD-F12b triplet pair energy        -0.090112218019
  CCSD-F12b correlation energy         -0.291797798997

  Triples (T) contribution             -0.008430251447
  Total correlation energy             -0.300228050444

  CCSD-F12b total energy              -76.356868030833
  CCSD[T]-F12b energy                 -76.365596096479
  CCSD-T-F12b energy                  -76.365176848691
 !CCSD(T)-F12b total energy           -76.365298282280

 Timing summary (sec):

 STEP                 CPU(USER)    SYS     CPU(TOT)    WALL
 Transformation          0.15      0.03      0.18      0.19
 CCSD iterations         0.60      0.07      0.67      0.69
 Triples                 0.49      0.01      0.50      0.49
 MP2-F12                 0.60      0.04      0.64      0.63
 F12b energy             0.05      0.00      0.05      0.05

 Program statistics:

 Available memory in ccsd:                99999786
 Min. memory needed in ccsd:                289388
 Max. memory used in ccsd:                  331202
 Max. memory used in cckext:                243364 ( 9 integral passes)



 **********************************************************************************************************************************
 DATASETS  * FILE   NREC   LENGTH (MB)   RECORD NAMES
              1      20       14.74       500      610      700      900      950      970     1000      129      960     1100   
                                          VAR    BASINP    GEOM    SYMINP    ZMAT    AOBASIS   BASIS     P2S    ABASIS      S 
                                         1400     1410     1200     1210     1080     1600     1650     1700      960(1)  1380   
                                           T        V       H0       H01     AOSYM     SMH    MOLCAS    OPER    ABASIS    JKOP   

              2       5        0.65       700     1000     2100     7360     7350   
                                         GEOM     BASIS     RHF    F12ABS    EF12   

 PROGRAMS   *        TOTAL   CCSD(T)        HF       INT
 CPU TIMES  *         2.97      1.91      0.27      0.72
 REAL TIME  *         3.69 SEC
 DISK USED  *       185.08 MB      
 SF USED    *        46.41 MB      
 GA USED    *         2.40 MB       (max)       0.00 MB       (current)
 **********************************************************************************************************************************

     CCSD(T)-F12        HF-SCF  
    -76.36529828    -76.06048381
 **********************************************************************************************************************************
 Variable memory released
