
 Primary working directories    : /scratch/kee
 Secondary working directories  : /scratch/kee
 Wavefunction directory         : /home/kee/wfu/
 Main file repository           : /scratch/kee/

 ARCHNAME  : Linux/x86_64
 FC        : /opt/intel/composer_xe_2015.0.090/bin/intel64/ifort
 FCVERSION : 15.0.0
 BLASLIB   : -L/opt/intel/mkl/lib/intel64 -lmkl_intel_ilp64 -lmkl_sequential -lmkl_core
 id        : emory

 Nodes     nprocs
 node17       3
 Number of processes for MPI-2 version of Molpro:   nprocs(total)=    4   nprocs(compute)=    3   nprocs(helper)=    1
 ga_uses_ma=false, calling ma_init with nominal heap.
 GA-space will be limited to   8.0 MW (determined by -G option)

 Using customized tuning parameters: mindgm=7; mindgv=32; mindgc=1; mindgr=1; noblas=0; mincuda=1000; minvec=7
 default implementation of scratch files=sf  

 ***,co2h2o
 memory,100,m
 basis avtz
 geomtype = xyz
 geometry = {
 6
    -264.76489694
 O     0.82869278    1.16169550    0.00000000
 O     0.82658011   -1.16233555    0.00000000
 O    -5.94123429    0.00234720    0.00000000
 H    -6.52486730    0.76294185    0.00000000
 H    -6.52459919   -0.75845472    0.00000000
 C     0.80876519   -0.00029961    0.00000000
 }
 hf
 ccsd(t)-f12
 ---

 Variables initialized (665), CPU time= 0.00 sec
 Commands  initialized (462), CPU time= 0.01 sec, 486 directives.
 Default parameters read. Elapsed time= 0.04 sec

 Checking input...
 Passed
1


                                         ***  PROGRAM SYSTEM MOLPRO  ***
                         Copyright, University College Cardiff Consultants Limited, 2008

                                    Version 2010.1 linked 9 Dec 2014 15:06:28 


 **********************************************************************************************************************************
 LABEL *   co2h2o                                                                        
 Linux-2.6.32-504.el6.x86_64/node17(x86_64) 64 bit mpp version                           DATE: 11-Dec-16          TIME: 23:04:42  
 **********************************************************************************************************************************

 Patch level:      19
 **********************************************************************************************************************************

 Variable memory set to  100000000 words,  buffer space   230000 words

 SETTING BASIS          =    AVTZ
 SETTING GEOMTYPE       =    XYZ

Geometry recognized as XYZ



 Recomputing integrals since basis changed


 Using spherical harmonics

 Library entry O      S aug-cc-pVTZ          selected for orbital group  1
 Library entry O      P aug-cc-pVTZ          selected for orbital group  1
 Library entry O      D aug-cc-pVTZ          selected for orbital group  1
 Library entry O      F aug-cc-pVTZ          selected for orbital group  1
 Library entry H      S aug-cc-pVTZ          selected for orbital group  2
 Library entry H      P aug-cc-pVTZ          selected for orbital group  2
 Library entry H      D aug-cc-pVTZ          selected for orbital group  2
 Library entry C      S aug-cc-pVTZ          selected for orbital group  3
 Library entry C      P aug-cc-pVTZ          selected for orbital group  3
 Library entry C      D aug-cc-pVTZ          selected for orbital group  3
 Library entry C      F aug-cc-pVTZ          selected for orbital group  3

1PROGRAM * SEWARD (Integral evaluation for generally contracted gaussian basis sets)     Author: Roland Lindh, 1990

 Geometry written to block  1 of record 700


 Point group  Cs  



 ATOMIC COORDINATES

 NR  ATOM    CHARGE       X              Y              Z

   1  O       8.00    1.566002401    2.195286343    0.000000000
   2  O       8.00    1.562010034   -2.196495862    0.000000000
   3  O       8.00  -11.227305691    0.004435565    0.000000000
   4  H       1.00  -12.330212241    1.441751151    0.000000000
   5  H       1.00  -12.329705586   -1.433271704    0.000000000
   6  C       6.00    1.528344714   -0.000566181    0.000000000

 Bond lengths in Bohr (Angstrom)

 1-6  2.196175405  2-6  2.196187724  3-4  1.811706088  3-5  1.811708509
     (1.162165971)     (1.162172490)     (0.958713571)     (0.958714852)

 Bond angles

  1-6-2  178.13918425   4-3-5  105.01947441

 NUCLEAR CHARGE:                   32
 NUMBER OF PRIMITIVE AOS:         322
 NUMBER OF SYMMETRY AOS:          282
 NUMBER OF CONTRACTIONS:          230   ( 152A'  +  78A"  )
 NUMBER OF CORE ORBITALS:           4   (   4A'  +   0A"  )
 NUMBER OF VALENCE ORBITALS:       18   (  14A'  +   4A"  )


 NUCLEAR REPULSION ENERGY   84.21499353


 Eigenvalues of metric

         1 0.349E-03 0.374E-03 0.393E-03 0.394E-03 0.899E-03 0.922E-03 0.166E-02 0.175E-02
         2 0.318E-02 0.348E-02 0.593E-02 0.124E-01 0.136E-01 0.294E-01 0.296E-01 0.317E-01


 Contracted 2-electron integrals neglected if value below      1.0D-11
 AO integral compression algorithm  1   Integral accuracy      1.0D-11

     351.797 MB (compressed) written to integral file ( 23.7%)

     Node minimum: 112.198 MB, node maximum: 124.518 MB


 NUMBER OF SORTED TWO-ELECTRON INTEGRALS:   59950380.     BUFFER LENGTH:  32768
 NUMBER OF SEGMENTS:   4  SEGMENT LENGTH:   15995235      RECORD LENGTH: 524288

 Memory used in sort:      16.55 MW

 SORT1 READ   185752697. AND WROTE    25314419. INTEGRALS IN     74 RECORDS. CPU TIME:     2.24 SEC, REAL TIME:     2.50 SEC
 SORT2 READ    76183864. AND WROTE   179836431. INTEGRALS IN   1425 RECORDS. CPU TIME:     0.88 SEC, REAL TIME:     1.12 SEC

 Node minimum:    59940574.  Node maximum:    59950380. integrals

 OPERATOR DM      FOR CENTER  0  COORDINATES:    0.000000    0.000000    0.000000


 **********************************************************************************************************************************
 DATASETS  * FILE   NREC   LENGTH (MB)   RECORD NAMES
              1      18        3.74       500      610      700      900      950      970     1000      129      960     1100   
                                          VAR    BASINP    GEOM    SYMINP    ZMAT    AOBASIS   BASIS     P2S    ABASIS      S 
                                         1400     1410     1200     1210     1080     1600     1650     1700   
                                           T        V       H0       H01     AOSYM     SMH    MOLCAS    OPER   

 PROGRAMS   *        TOTAL       INT
 CPU TIMES  *         6.40      6.34
 REAL TIME  *         7.05 SEC
 DISK USED  *         1.25 GB      
 GA USED    *         0.00 MB       (max)       0.00 MB       (current)
 **********************************************************************************************************************************

1PROGRAM * RHF-SCF (CLOSED SHELL)       Authors: W. Meyer, H.-J. Werner


 NUMBER OF ELECTRONS:      16+   16-
 CONVERGENCE THRESHOLDS:    1.00E-05 (Density)    1.00E-07 (Energy)
 MAX. NUMBER OF ITERATIONS:       60
 INTERPOLATION TYPE:            DIIS
 INTERPOLATION STEPS:              2 (START)      1 (STEP)
 LEVEL SHIFTS:                  0.00 (CLOSED)  0.00 (OPEN) 



 Orbital guess generated from atomic densities. Full valence occupancy:   18   4

 Molecular orbital dump at record        2100.2

 Initial alpha occupancy:  13   3
 Initial beta  occupancy:  13   3
 Wave function symmetry:    1

 ITERATION    DDIFF          GRAD             ENERGY        2-EL.EN.            DIPOLE MOMENTS         DIIS
    1      0.000D+00      0.000D+00      -263.66067702    364.095428   -1.18422   -0.00012    0.00000    0
    2      0.000D+00      0.629D-02      -263.72587672    359.482493   -0.69286   -0.00010    0.00000    1
    3      0.101D-01      0.427D-02      -263.76907718    362.048772   -0.81492   -0.00009    0.00000    2
    4      0.415D-02      0.402D-03      -263.76957220    361.837554   -0.81816   -0.00009    0.00000    3
    5      0.485D-03      0.117D-03      -263.76963020    361.839208   -0.81281   -0.00009    0.00000    4
    6      0.181D-03      0.472D-04      -263.76963737    361.853782   -0.81349   -0.00009    0.00000    5
    7      0.604D-04      0.115D-04      -263.76963810    361.845404   -0.81305   -0.00009    0.00000    6
    8      0.197D-04      0.254D-05      -263.76963815    361.846706   -0.81306   -0.00009    0.00000    7
    9      0.541D-05      0.851D-06      -263.76963815    361.846511   -0.81302   -0.00009    0.00000    0

 Final occupancy:  13   3

 !RHF STATE 1.1 Energy               -263.769638148284
 Nuclear energy                        84.21499353
 One-electron energy                 -528.90788730
 Two-electron energy                  180.92325562
 Virial quotient                       -1.00183025
 !RHF STATE 1.1 Dipole moment          -0.81302483    -0.00009126     0.00000000
 Dipole moment /Debye                  -2.06636764    -0.00023195     0.00000000

 Orbital energies:

         1.1          2.1          3.1          4.1          5.1          6.1          7.1          8.1          9.1         10.1
    -20.648973   -20.648927   -20.568248   -11.457787    -1.526635    -1.473543    -1.353499    -0.796917    -0.739180    -0.719029

        11.1         12.1         13.1         14.1         15.1
     -0.710636    -0.584783    -0.540311     0.028246     0.047025

         1.2          2.2          3.2          4.2          5.2
     -0.710718    -0.540368    -0.511133     0.076549     0.158016


 **********************************************************************************************************************************
 DATASETS  * FILE   NREC   LENGTH (MB)   RECORD NAMES
              1      18        3.76       500      610      700      900      950      970     1000      129      960     1100   
                                          VAR    BASINP    GEOM    SYMINP    ZMAT    AOBASIS   BASIS     P2S    ABASIS      S 
                                         1400     1410     1200     1210     1080     1600     1650     1700   
                                           T        V       H0       H01     AOSYM     SMH    MOLCAS    OPER   

              2       3        0.96       700     1000     2100   
                                         GEOM     BASIS     RHF  

 PROGRAMS   *        TOTAL        HF       INT
 CPU TIMES  *        10.08      3.68      6.34
 REAL TIME  *        10.91 SEC
 DISK USED  *         1.28 GB      
 SF USED    *         0.12 MB      
 GA USED    *         0.00 MB       (max)       0.00 MB       (current)
 **********************************************************************************************************************************


1PROGRAM * CCSD (Closed-shell coupled cluster)     Authors: C. Hampel, H.-J. Werner, 1991, M. Deegan, P.J. Knowles, 1992

                                  CCSD-F12 implementation by  H.-J. Werner, 2007

                   Density fitting integral evaluation by F.R. Manby, 2003,2007, G. Knizia, 2010

 Basis set CC-PVTZ/JKFIT generated.      Number of basis functions:   376 
 Basis set AUG-CC-PVTZ/MP2FIT generated. Number of basis functions:   516 

 Convergence thresholds:  THRVAR = 1.00D-08  THRDEN = 1.00D-06

 CCSD(T)     terms to be evaluated (factor= 1.000)


 Number of core orbitals:           4 (   4   0 )
 Number of closed-shell orbitals:  12 (   9   3 )
 Number of external orbitals:     214 ( 139  75 )

 Molecular orbitals read from record     2100.2  Type=RHF/CANONICAL (state 1.1)

 MP2-F12 correlation treatment (H.-J. Werner, 2006)
 --------------------------------------------------

 Using MP2-F12 with ansatz 3C(FIX)

 Using projected zeroth-order Hamiltonian (+Z)

 FOCKRIB=T FOCKRIC=T FOCKRIP=T CABSP=T CABSA=T CABSK=T CABSF=T GBC=F EBC=F DMAT=T NOFIK=T NOPAO=1 SOLVE=-1  USEPAO=0
 EXCH_A= T EXCH_B= F EXCH_C= F EXCH_P= F
 
 Geminal basis:    OPTFULL  GEM_TYPE=SLATER  BETA=1.0  NGEM=6

 Optimizing Gaussian exponents for each gem_beta

 Geminal optimization for beta= 1.0000
 Weight function:   m=0, omega= 1.4646

 Augmented Hessian optimization of geminal fit. Trust ratio= 0.40000
 Convergence reached after   2 iterations. Final gradient= 8.24D-16, Step= 4.32D-06, Delta= 1.28D-09
 
 Alpha:                 0.19532     0.81920     2.85917     9.50073    35.69989   197.79328
 Coeff:                 0.27070     0.30552     0.18297     0.10986     0.06810     0.04224
 

 Symmetry turned off. Reference energy:       -263.769638148284

 All pairs explicitly correlated. Number of r12-pairs:           78
 
 AO(A)-basis ORBITAL           loaded. Number of functions:     230
 RI(R)-basis CC-PVTZ/JKFIT     loaded. Number of functions:     376
 DF-basis CC-PVTZ/JKFIT        loaded. Number of functions:     376

 Screening thresholds:   THRAO=  1.00D-10  THRMO=  1.00D-09  THRPROD=  1.00D-09
                         THRSW=  1.00D-05  THROV=  1.00D-12  THRF12=   1.00D-08

 CPU time for Fock operators                      0.98 sec
 
 Construction of ABS:
 Smallest eigenvalue of S          2.57E-04  (threshold= 1.00E-08)
 Ratio eigmin/eigmax               1.83E-06  (threshold= 1.00E-09)
 Smallest eigenvalue of S kept     2.57E-04  (threshold= 2.57E-04, 0 functions deleted, 376 kept)
 
 Construction of CABS:
 Smallest eigenvalue of S          2.30E-08  (threshold= 1.00E-08)
 Ratio eigmin/eigmax               2.30E-08  (threshold= 1.00E-09)
 Smallest eigenvalue of S kept     2.30E-08  (threshold= 2.30E-08, 0 functions deleted, 376 kept)
 
 CPU time for CABS singles                        0.17 sec

 CABS-singles contribution of  -0.01592282 patched into reference energy.
 New reference energy        -263.78556097
 
 AO(A)-basis ORBITAL           loaded. Number of functions:     230
 RI(R)-basis CC-PVTZ/JKFIT     loaded. Number of functions:     376
 DF-basis AUG-CC-PVTZ/MP2FIT   loaded. Number of functions:     516

 Screening thresholds:   THRAO=  1.00D-10  THRMO=  1.00D-09  THRPROD=  1.00D-09
                         THRSW=  1.00D-05  THROV=  1.00D-12  THRF12=   1.00D-08

 CPU time for 3-index integral evaluation         2.02 sec
 CPU time for first  half transformation          0.31 sec ( 7949.0 MFLOP/sec)
 CPU time for sorting                             0.16 sec
 CPU time for fitting                             0.06 sec (23217.5 MFLOP/sec)
 CPU time for tilde quantities                    0.06 sec (30814.7 MFLOP/sec)
 CPU time for assembly                            0.82 sec (28281.8 MFLOP/sec)
 CPU time for tranop_f12                          0.90 sec (32451.0 MFLOP/sec)
 CPU time for f12 integrals (total)               6.55 sec
 F12-matrices built in  3 passes.
 F12-matrices built in  3 passes.
 F12-matrices built in  3 passes.
 F12-matrices built in  3 passes.
 FC-matrix built in  3 passes.
 CPU time for f12 matrices (total)                0.50 sec

 Diagonal F12 approximation with fixed coefficients:  TSING= 0.500,  TTRIP= 0.250 (scaled by -1/beta)

 DF-MP2-F12 energy corrections:
 ------------------------------
 Approx.                                    Singlet             Triplet             Total
 DF-MP2-F12/3*C(DX,FIX)                -0.097451110748     -0.016933769630     -0.114384880379
 DF-MP2-F12/3*C(FIX)                   -0.079867890070     -0.013395876820     -0.093263766891
 DF-MP2-F12/3C(FIX)                    -0.080228418410     -0.013419000423     -0.093647418833

 DF-MP2-F12 correlation energies:
 --------------------------------
 Approx.                                    Singlet             Triplet             Ecorr            Total Energy
 DF-MP2                                -0.537710414061     -0.343060805744     -0.880771219805   -264.666332186851
 DF-MP2-F12/3*C(DX,FIX)                -0.635161524809     -0.359994575374     -0.995156100183   -264.780717067229
 DF-MP2-F12/3*C(FIX)                   -0.617578304131     -0.356456682564     -0.974034986696   -264.759595953742
 DF-MP2-F12/3C(FIX)                    -0.617938832471     -0.356479806166     -0.974418638637   -264.759979605683

 SCS-DF-MP2 energies (F_SING= 1.20000  F_TRIP= 0.62222  F_PARALLEL= 0.33333):
 ----------------------------------------------------------------------------
 SCS-DF-MP2                            -0.858712553780   -264.644273520826
 SCS-DF-MP2-F12/3*C(DX,FIX)            -0.986190454448   -264.771751421494
 SCS-DF-MP2-F12/3*C(FIX)               -0.962889234109   -264.748450201155
 SCS-DF-MP2-F12/3C(FIX)                -0.963336256135   -264.748897223181

 Symmetry restored.
 Symmetry transformation completed.

 Number of N-1 electron functions:              12
 Number of N-2 electron functions:              78
 Number of singly external CSFs:              1476
 Number of doubly external CSFs:           1686804
 Total number of CSFs:                     1688281

 Pair and operator lists are different

 Length of J-op  integral file:             466.42 MB
 Length of K-op  integral file:             526.62 MB
 Length of 3-ext integral record:             0.00 MB

 Memory could be reduced to 76.61 Mwords without degradation in triples

 Integral transformation finished. Total CPU:   5.41 sec, npass=  1  Memory used:  24.61 MW

 Reference energy:                   -263.78556097

 Adding F12 terms to K(Cij), methodcc=6,  factor=1.0

 ITER.      SQ.NORM     CORR.ENERGY   TOTAL ENERGY   ENERGY CHANGE        DEN1      VAR(S)    VAR(P)  DIIS     TIME
   1      1.20213322    -0.86272882  -264.64828978     0.01805887     0.04668347  0.72D-02  0.56D-02  1  1    17.36
   2      1.21644263    -0.85850410  -264.64406507     0.00422471    -0.02014807  0.86D-04  0.59D-03  2  2    20.77
   3      1.22180237    -0.85860058  -264.64416155    -0.00009648    -0.00236385  0.13D-03  0.32D-04  3  3    24.38
   4      1.22460382    -0.85847281  -264.64403378     0.00012777    -0.00141115  0.76D-05  0.41D-05  4  4    27.90
   5      1.22563362    -0.85843514  -264.64399610     0.00003768    -0.00036629  0.56D-06  0.29D-06  5  5    31.51
   6      1.22579579    -0.85840827  -264.64396924     0.00002686    -0.00000805  0.40D-07  0.24D-07  6  6    35.16
   7      1.22582514    -0.85840585  -264.64396682     0.00000242    -0.00000621  0.25D-08  0.40D-08  6  4    38.81
   8      1.22582544    -0.85840536  -264.64396633     0.00000049     0.00000195  0.39D-09  0.27D-09  6  1    42.35
   9      1.22582606    -0.85840543  -264.64396640    -0.00000007     0.00000056  0.26D-10  0.21D-10  6  2    45.98

 Norm of t1 vector:      0.10595269      S-energy:    -0.00000002      T1 diagnostic:  0.01529295
                                                                       D1 diagnostic:  0.04495591

 Adding energy correction from Wij-K(Fij), methodcc=6  factor=1.0
 
  CCSD correlation energy              -0.858405429374
  MP2-F12 correction (uncoupled)       -0.092491185251
  C*T doubles correction               -0.001475248046
  f12b correction                       0.015407036359


 Total CPU time for triples:     82.74 sec


 RESULTS
 =======

  Reference energy                   -263.769638148284
  F12 singles correction               -0.015922818762

 F12 singles corrections added to reference energy

  New reference energy               -263.785560967046

  F12a singlet correction              -0.080428655005
  F12a triplet correction              -0.013537778292
  F12a total correction                -0.093966433297

 F12a corrections for ansatz F12/3C(FIX) added to CCSD energy
 
  CCSD-F12a singlet pair energy        -0.641876172932
  CCSD-F12a triplet pair energy        -0.310495664954
  CCSD-F12a correlation energy         -0.952371862671

  Triples (T) contribution             -0.037635667957
  Total correlation energy             -0.990007530628

  CCSD-F12a total energy             -264.737932829717
  CCSD[T]-F12a energy                -264.778111310160
  CCSD-T-F12a energy                 -264.774631310794
 !CCSD(T)-F12a total energy          -264.775568497674

 F12b corrections for ansatz F12/3C(FIX) added to CCSD(T)-F12a energy

  CCSD-F12b singlet pair energy        -0.627692500638
  CCSD-F12b triplet pair energy        -0.309272300889
  CCSD-F12b correlation energy         -0.936964826312

  Triples (T) contribution             -0.037635667957
  Total correlation energy             -0.974600494269

  CCSD-F12b total energy             -264.722525793357
  CCSD[T]-F12b energy                -264.762704273801
  CCSD-T-F12b energy                 -264.759224274435
 !CCSD(T)-F12b total energy          -264.760161461315

 Timing summary (sec):

 STEP                 CPU(USER)    SYS     CPU(TOT)    WALL
 Transformation          5.44      0.59      6.03      6.03
 CCSD iterations        31.85      2.10     33.95     34.61
 Triples                82.74      1.59     84.33     84.29
 MP2-F12                 8.70      1.26      9.96     12.34
 F12b energy             2.36      0.05      2.41      2.41

 Program statistics:

 Available memory in ccsd:                99998934
 Min. memory needed in ccsd:               4458306
 Max. memory used in ccsd:                 5958390
 Max. memory used in cckext:               6352469 (10 integral passes)



 **********************************************************************************************************************************
 DATASETS  * FILE   NREC   LENGTH (MB)   RECORD NAMES
              1      20      269.66       500      610      700      900      950      970     1000      129      960     1100   
                                          VAR    BASINP    GEOM    SYMINP    ZMAT    AOBASIS   BASIS     P2S    ABASIS      S 
                                         1400     1410     1200     1210     1080     1600     1650     1700      960(1)  1380   
                                           T        V       H0       H01     AOSYM     SMH    MOLCAS    OPER    ABASIS    JKOP   

              2       5        1.55       700     1000     2100     7360     7350   
                                         GEOM     BASIS     RHF    F12ABS    EF12   

 PROGRAMS   *        TOTAL   CCSD(T)        HF       INT
 CPU TIMES  *       141.24    131.16      3.68      6.34
 REAL TIME  *       150.89 SEC
 DISK USED  *         1.72 GB      
 SF USED    *         1.53 GB      
 GA USED    *         2.40 MB       (max)       0.00 MB       (current)
 **********************************************************************************************************************************

     CCSD(T)-F12        HF-SCF  
   -264.76016146   -263.76963815
 **********************************************************************************************************************************
 Variable memory released
