
 Primary working directories    : /scratch/kee
 Secondary working directories  : /scratch/kee
 Wavefunction directory         : /home/kee/wfu/
 Main file repository           : /scratch/kee/

 ARCHNAME  : Linux/x86_64
 FC        : /opt/intel/composer_xe_2015.0.090/bin/intel64/ifort
 FCVERSION : 15.0.0
 BLASLIB   : -L/opt/intel/mkl/lib/intel64 -lmkl_intel_ilp64 -lmkl_sequential -lmkl_core
 id        : emory

 Nodes     nprocs
 node17       3
 Number of processes for MPI-2 version of Molpro:   nprocs(total)=    4   nprocs(compute)=    3   nprocs(helper)=    1
 ga_uses_ma=false, calling ma_init with nominal heap.
 GA-space will be limited to   8.0 MW (determined by -G option)

 Using customized tuning parameters: mindgm=7; mindgv=32; mindgc=1; mindgr=1; noblas=0; mincuda=1000; minvec=7
 default implementation of scratch files=sf  

 ***,co2h2o
 memory,100,m
 basis avtz
 geomtype = xyz
 geometry = {
 6
    -264.76489694
 O     0.82869278    1.16169550    0.00000000
 O     0.82658011   -1.16233555    0.00000000
 O    -6.14123428    0.00242562    0.00000000
 H    -6.72486729    0.76302027    0.00000000
 H    -6.72459918   -0.75837630    0.00000000
 C     0.80876519   -0.00029961    0.00000000
 }
 hf
 ccsd(t)-f12
 ---

 Variables initialized (665), CPU time= 0.01 sec
 Commands  initialized (462), CPU time= 0.00 sec, 486 directives.
 Default parameters read. Elapsed time= 0.03 sec

 Checking input...
 Passed
1


                                         ***  PROGRAM SYSTEM MOLPRO  ***
                         Copyright, University College Cardiff Consultants Limited, 2008

                                    Version 2010.1 linked 9 Dec 2014 15:06:28 


 **********************************************************************************************************************************
 LABEL *   co2h2o                                                                        
 Linux-2.6.32-504.el6.x86_64/node17(x86_64) 64 bit mpp version                           DATE: 11-Dec-16          TIME: 23:14:20  
 **********************************************************************************************************************************

 Patch level:      19
 **********************************************************************************************************************************

 Variable memory set to  100000000 words,  buffer space   230000 words

 SETTING BASIS          =    AVTZ
 SETTING GEOMTYPE       =    XYZ

Geometry recognized as XYZ



 Recomputing integrals since basis changed


 Using spherical harmonics

 Library entry O      S aug-cc-pVTZ          selected for orbital group  1
 Library entry O      P aug-cc-pVTZ          selected for orbital group  1
 Library entry O      D aug-cc-pVTZ          selected for orbital group  1
 Library entry O      F aug-cc-pVTZ          selected for orbital group  1
 Library entry H      S aug-cc-pVTZ          selected for orbital group  2
 Library entry H      P aug-cc-pVTZ          selected for orbital group  2
 Library entry H      D aug-cc-pVTZ          selected for orbital group  2
 Library entry C      S aug-cc-pVTZ          selected for orbital group  3
 Library entry C      P aug-cc-pVTZ          selected for orbital group  3
 Library entry C      D aug-cc-pVTZ          selected for orbital group  3
 Library entry C      F aug-cc-pVTZ          selected for orbital group  3

1PROGRAM * SEWARD (Integral evaluation for generally contracted gaussian basis sets)     Author: Roland Lindh, 1990

 Geometry written to block  1 of record 700


 Point group  Cs  



 ATOMIC COORDINATES

 NR  ATOM    CHARGE       X              Y              Z

   1  O       8.00    1.566002401    2.195286343    0.000000000
   2  O       8.00    1.562010034   -2.196495862    0.000000000
   3  O       8.00  -11.605250898    0.004583757    0.000000000
   4  H       1.00  -12.708157448    1.441899343    0.000000000
   5  H       1.00  -12.707650794   -1.433123512    0.000000000
   6  C       6.00    1.528344714   -0.000566181    0.000000000

 Bond lengths in Bohr (Angstrom)

 1-6  2.196175405  2-6  2.196187724  3-4  1.811706088  3-5  1.811708509
     (1.162165971)     (1.162172490)     (0.958713571)     (0.958714852)

 Bond angles

  1-6-2  178.13918425   4-3-5  105.01947441

 NUCLEAR CHARGE:                   32
 NUMBER OF PRIMITIVE AOS:         322
 NUMBER OF SYMMETRY AOS:          282
 NUMBER OF CONTRACTIONS:          230   ( 152A'  +  78A"  )
 NUMBER OF CORE ORBITALS:           4   (   4A'  +   0A"  )
 NUMBER OF VALENCE ORBITALS:       18   (  14A'  +   4A"  )


 NUCLEAR REPULSION ENERGY   83.75074630


 Eigenvalues of metric

         1 0.349E-03 0.374E-03 0.393E-03 0.397E-03 0.900E-03 0.922E-03 0.166E-02 0.175E-02
         2 0.318E-02 0.348E-02 0.593E-02 0.124E-01 0.136E-01 0.294E-01 0.296E-01 0.317E-01


 Contracted 2-electron integrals neglected if value below      1.0D-11
 AO integral compression algorithm  1   Integral accuracy      1.0D-11

     343.146 MB (compressed) written to integral file ( 23.5%)

     Node minimum: 106.430 MB, node maximum: 118.751 MB


 NUMBER OF SORTED TWO-ELECTRON INTEGRALS:   59950380.     BUFFER LENGTH:  32768
 NUMBER OF SEGMENTS:   4  SEGMENT LENGTH:   15995235      RECORD LENGTH: 524288

 Memory used in sort:      16.55 MW

 SORT1 READ   182732353. AND WROTE    24497937. INTEGRALS IN     73 RECORDS. CPU TIME:     2.04 SEC, REAL TIME:     2.39 SEC
 SORT2 READ    73734926. AND WROTE   179836431. INTEGRALS IN   1350 RECORDS. CPU TIME:     0.79 SEC, REAL TIME:     1.01 SEC

 Node minimum:    59940574.  Node maximum:    59950380. integrals

 OPERATOR DM      FOR CENTER  0  COORDINATES:    0.000000    0.000000    0.000000


 **********************************************************************************************************************************
 DATASETS  * FILE   NREC   LENGTH (MB)   RECORD NAMES
              1      18        3.74       500      610      700      900      950      970     1000      129      960     1100   
                                          VAR    BASINP    GEOM    SYMINP    ZMAT    AOBASIS   BASIS     P2S    ABASIS      S 
                                         1400     1410     1200     1210     1080     1600     1650     1700   
                                           T        V       H0       H01     AOSYM     SMH    MOLCAS    OPER   

 PROGRAMS   *        TOTAL       INT
 CPU TIMES  *         5.96      5.89
 REAL TIME  *         6.86 SEC
 DISK USED  *         1.23 GB      
 GA USED    *         0.00 MB       (max)       0.00 MB       (current)
 **********************************************************************************************************************************

1PROGRAM * RHF-SCF (CLOSED SHELL)       Authors: W. Meyer, H.-J. Werner


 NUMBER OF ELECTRONS:      16+   16-
 CONVERGENCE THRESHOLDS:    1.00E-05 (Density)    1.00E-07 (Energy)
 MAX. NUMBER OF ITERATIONS:       60
 INTERPOLATION TYPE:            DIIS
 INTERPOLATION STEPS:              2 (START)      1 (STEP)
 LEVEL SHIFTS:                  0.00 (CLOSED)  0.00 (OPEN) 



 Orbital guess generated from atomic densities. Full valence occupancy:   18   4

 Molecular orbital dump at record        2100.2

 Initial alpha occupancy:  13   3
 Initial beta  occupancy:  13   3
 Wave function symmetry:    1

 ITERATION    DDIFF          GRAD             ENERGY        2-EL.EN.            DIPOLE MOMENTS         DIIS
    1      0.000D+00      0.000D+00      -263.66062758    363.154296   -1.18422   -0.00012    0.00000    0
    2      0.000D+00      0.629D-02      -263.72583613    358.545513   -0.69162   -0.00010    0.00000    1
    3      0.101D-01      0.427D-02      -263.76905592    361.111388   -0.81407   -0.00009    0.00000    2
    4      0.415D-02      0.402D-03      -263.76955095    360.900000   -0.81733   -0.00009    0.00000    3
    5      0.485D-03      0.117D-03      -263.76960894    360.901768   -0.81197   -0.00009    0.00000    4
    6      0.181D-03      0.472D-04      -263.76961611    360.916316   -0.81265   -0.00009    0.00000    5
    7      0.604D-04      0.116D-04      -263.76961684    360.907945   -0.81220   -0.00009    0.00000    6
    8      0.197D-04      0.254D-05      -263.76961689    360.909246   -0.81221   -0.00009    0.00000    7
    9      0.541D-05      0.851D-06      -263.76961689    360.909052   -0.81218   -0.00009    0.00000    0

 Final occupancy:  13   3

 !RHF STATE 1.1 Energy               -263.769616887933
 Nuclear energy                        83.75074630
 One-electron energy                 -527.97488924
 Two-electron energy                  180.45452606
 Virial quotient                       -1.00182998
 !RHF STATE 1.1 Dipole moment          -0.81217991    -0.00009161     0.00000000
 Dipole moment /Debye                  -2.06422022    -0.00023283     0.00000000

 Orbital energies:

         1.1          2.1          3.1          4.1          5.1          6.1          7.1          8.1          9.1         10.1
    -20.649216   -20.649171   -20.568168   -11.458024    -1.526879    -1.473786    -1.353418    -0.797152    -0.739414    -0.718949

        11.1         12.1         13.1         14.1         15.1
     -0.710885    -0.584692    -0.540552     0.028263     0.047044

         1.2          2.2          3.2          4.2          5.2
     -0.710959    -0.540605    -0.511050     0.076393     0.157906


 **********************************************************************************************************************************
 DATASETS  * FILE   NREC   LENGTH (MB)   RECORD NAMES
              1      18        3.76       500      610      700      900      950      970     1000      129      960     1100   
                                          VAR    BASINP    GEOM    SYMINP    ZMAT    AOBASIS   BASIS     P2S    ABASIS      S 
                                         1400     1410     1200     1210     1080     1600     1650     1700   
                                           T        V       H0       H01     AOSYM     SMH    MOLCAS    OPER   

              2       3        0.96       700     1000     2100   
                                         GEOM     BASIS     RHF  

 PROGRAMS   *        TOTAL        HF       INT
 CPU TIMES  *         9.54      3.58      5.89
 REAL TIME  *        10.63 SEC
 DISK USED  *         1.25 GB      
 SF USED    *         0.12 MB      
 GA USED    *         0.00 MB       (max)       0.00 MB       (current)
 **********************************************************************************************************************************


1PROGRAM * CCSD (Closed-shell coupled cluster)     Authors: C. Hampel, H.-J. Werner, 1991, M. Deegan, P.J. Knowles, 1992

                                  CCSD-F12 implementation by  H.-J. Werner, 2007

                   Density fitting integral evaluation by F.R. Manby, 2003,2007, G. Knizia, 2010

 Basis set CC-PVTZ/JKFIT generated.      Number of basis functions:   376 
 Basis set AUG-CC-PVTZ/MP2FIT generated. Number of basis functions:   516 

 Convergence thresholds:  THRVAR = 1.00D-08  THRDEN = 1.00D-06

 CCSD(T)     terms to be evaluated (factor= 1.000)


 Number of core orbitals:           4 (   4   0 )
 Number of closed-shell orbitals:  12 (   9   3 )
 Number of external orbitals:     214 ( 139  75 )

 Molecular orbitals read from record     2100.2  Type=RHF/CANONICAL (state 1.1)

 MP2-F12 correlation treatment (H.-J. Werner, 2006)
 --------------------------------------------------

 Using MP2-F12 with ansatz 3C(FIX)

 Using projected zeroth-order Hamiltonian (+Z)

 FOCKRIB=T FOCKRIC=T FOCKRIP=T CABSP=T CABSA=T CABSK=T CABSF=T GBC=F EBC=F DMAT=T NOFIK=T NOPAO=1 SOLVE=-1  USEPAO=0
 EXCH_A= T EXCH_B= F EXCH_C= F EXCH_P= F
 
 Geminal basis:    OPTFULL  GEM_TYPE=SLATER  BETA=1.0  NGEM=6

 Optimizing Gaussian exponents for each gem_beta

 Geminal optimization for beta= 1.0000
 Weight function:   m=0, omega= 1.4646

 Augmented Hessian optimization of geminal fit. Trust ratio= 0.40000
 Convergence reached after   2 iterations. Final gradient= 8.24D-16, Step= 4.32D-06, Delta= 1.28D-09
 
 Alpha:                 0.19532     0.81920     2.85917     9.50073    35.69989   197.79328
 Coeff:                 0.27070     0.30552     0.18297     0.10986     0.06810     0.04224
 

 Symmetry turned off. Reference energy:       -263.769616887933

 All pairs explicitly correlated. Number of r12-pairs:           78
 
 AO(A)-basis ORBITAL           loaded. Number of functions:     230
 RI(R)-basis CC-PVTZ/JKFIT     loaded. Number of functions:     376
 DF-basis CC-PVTZ/JKFIT        loaded. Number of functions:     376

 Screening thresholds:   THRAO=  1.00D-10  THRMO=  1.00D-09  THRPROD=  1.00D-09
                         THRSW=  1.00D-05  THROV=  1.00D-12  THRF12=   1.00D-08

 CPU time for Fock operators                      0.98 sec
 
 Construction of ABS:
 Smallest eigenvalue of S          2.57E-04  (threshold= 1.00E-08)
 Ratio eigmin/eigmax               1.83E-06  (threshold= 1.00E-09)
 Smallest eigenvalue of S kept     2.57E-04  (threshold= 2.57E-04, 0 functions deleted, 376 kept)
 
 Construction of CABS:
 Smallest eigenvalue of S          2.30E-08  (threshold= 1.00E-08)
 Ratio eigmin/eigmax               2.30E-08  (threshold= 1.00E-09)
 Smallest eigenvalue of S kept     2.30E-08  (threshold= 2.30E-08, 0 functions deleted, 376 kept)
 
 CPU time for CABS singles                        0.17 sec

 CABS-singles contribution of  -0.01592304 patched into reference energy.
 New reference energy        -263.78553993
 
 AO(A)-basis ORBITAL           loaded. Number of functions:     230
 RI(R)-basis CC-PVTZ/JKFIT     loaded. Number of functions:     376
 DF-basis AUG-CC-PVTZ/MP2FIT   loaded. Number of functions:     516

 Screening thresholds:   THRAO=  1.00D-10  THRMO=  1.00D-09  THRPROD=  1.00D-09
                         THRSW=  1.00D-05  THROV=  1.00D-12  THRF12=   1.00D-08

 CPU time for 3-index integral evaluation         1.97 sec
 CPU time for first  half transformation          0.32 sec ( 7398.1 MFLOP/sec)
 CPU time for second half transformation          0.03 sec ( 3594.5 MFLOP/sec)
 CPU time for sorting                             0.16 sec
 CPU time for fitting                             0.05 sec (27861.0 MFLOP/sec)
 CPU time for tilde quantities                    0.06 sec (30814.7 MFLOP/sec)
 CPU time for assembly                            0.86 sec (27348.5 MFLOP/sec)
 CPU time for tranop_f12                          0.95 sec (31716.1 MFLOP/sec)
 CPU time for f12 integrals (total)               6.63 sec
 F12-matrices built in  3 passes.
 F12-matrices built in  3 passes.
 F12-matrices built in  3 passes.
 F12-matrices built in  3 passes.
 FC-matrix built in  3 passes.
 CPU time for f12 matrices (total)                0.54 sec

 Diagonal F12 approximation with fixed coefficients:  TSING= 0.500,  TTRIP= 0.250 (scaled by -1/beta)

 DF-MP2-F12 energy corrections:
 ------------------------------
 Approx.                                    Singlet             Triplet             Total
 DF-MP2-F12/3*C(DX,FIX)                -0.097451493225     -0.016933849367     -0.114385342592
 DF-MP2-F12/3*C(FIX)                   -0.079868165805     -0.013395959725     -0.093264125530
 DF-MP2-F12/3C(FIX)                    -0.080228722332     -0.013419087051     -0.093647809383

 DF-MP2-F12 correlation energies:
 --------------------------------
 Approx.                                    Singlet             Triplet             Ecorr            Total Energy
 DF-MP2                                -0.537712145499     -0.343061326444     -0.880773471943   -264.666313401445
 DF-MP2-F12/3*C(DX,FIX)                -0.635163638724     -0.359995175811     -0.995158814535   -264.780698744037
 DF-MP2-F12/3*C(FIX)                   -0.617580311305     -0.356457286169     -0.974037597473   -264.759577526975
 DF-MP2-F12/3C(FIX)                    -0.617940867831     -0.356480413495     -0.974421281325   -264.759961210827

 SCS-DF-MP2 energies (F_SING= 1.20000  F_TRIP= 0.62222  F_PARALLEL= 0.33333):
 ----------------------------------------------------------------------------
 SCS-DF-MP2                            -0.858714955497   -264.644254884999
 SCS-DF-MP2-F12/3*C(DX,FIX)            -0.986193364751   -264.771733294253
 SCS-DF-MP2-F12/3*C(FIX)               -0.962892018293   -264.748431947795
 SCS-DF-MP2-F12/3C(FIX)                -0.963339076460   -264.748879005962

 Symmetry restored.
 Symmetry transformation completed.

 Number of N-1 electron functions:              12
 Number of N-2 electron functions:              78
 Number of singly external CSFs:              1476
 Number of doubly external CSFs:           1686804
 Total number of CSFs:                     1688281

 Pair and operator lists are different

 Length of J-op  integral file:             466.42 MB
 Length of K-op  integral file:             526.62 MB
 Length of 3-ext integral record:             0.00 MB

 Memory could be reduced to 76.61 Mwords without degradation in triples

 Integral transformation finished. Total CPU:   4.44 sec, npass=  1  Memory used:  24.61 MW

 Reference energy:                   -263.78553993

 Adding F12 terms to K(Cij), methodcc=6,  factor=1.0

 ITER.      SQ.NORM     CORR.ENERGY   TOTAL ENERGY   ENERGY CHANGE        DEN1      VAR(S)    VAR(P)  DIIS     TIME
   1      1.20213485    -0.86273050  -264.64827043     0.01805945     0.04668498  0.72D-02  0.56D-02  1  1    15.87
   2      1.21644461    -0.85850547  -264.64404540     0.00422503    -0.02014861  0.86D-04  0.59D-03  2  2    18.62
   3      1.22180438    -0.85860190  -264.64414183    -0.00009642    -0.00236384  0.13D-03  0.32D-04  3  3    21.38
   4      1.22460584    -0.85847412  -264.64401405     0.00012778    -0.00141115  0.76D-05  0.41D-05  4  4    24.14
   5      1.22563566    -0.85843644  -264.64397637     0.00003768    -0.00036630  0.56D-06  0.29D-06  5  5    26.92
   6      1.22579784    -0.85840958  -264.64394951     0.00002686    -0.00000805  0.40D-07  0.24D-07  6  6    29.71
   7      1.22582719    -0.85840716  -264.64394709     0.00000242    -0.00000621  0.25D-08  0.40D-08  6  4    33.79
   8      1.22582749    -0.85840667  -264.64394660     0.00000049     0.00000195  0.39D-09  0.27D-09  6  1    36.72
   9      1.22582810    -0.85840673  -264.64394666    -0.00000007     0.00000056  0.26D-10  0.21D-10  6  2    39.52

 Norm of t1 vector:      0.10595306      S-energy:    -0.00000002      T1 diagnostic:  0.01529301
                                                                       D1 diagnostic:  0.04495441

 Adding energy correction from Wij-K(Fij), methodcc=6  factor=1.0
 
  CCSD correlation energy              -0.858406733725
  MP2-F12 correction (uncoupled)       -0.092491448545
  C*T doubles correction               -0.001475318470
  f12b correction                       0.015407066793


 Total CPU time for triples:     75.09 sec


 RESULTS
 =======

  Reference energy                   -263.769616887933
  F12 singles correction               -0.015923041569

 F12 singles corrections added to reference energy

  New reference energy               -263.785539929502

  F12a singlet correction              -0.080428913350
  F12a triplet correction              -0.013537853666
  F12a total correction                -0.093966767016

 F12a corrections for ansatz F12/3C(FIX) added to CCSD energy
 
  CCSD-F12a singlet pair energy        -0.641878182233
  CCSD-F12a triplet pair energy        -0.310495293766
  CCSD-F12a correlation energy         -0.952373500741

  Triples (T) contribution             -0.037635919373
  Total correlation energy             -0.990009420114

  CCSD-F12a total energy             -264.737913430243
  CCSD[T]-F12a energy                -264.778092259478
  CCSD-T-F12a energy                 -264.774612112607
 !CCSD(T)-F12a total energy          -264.775549349616

 F12b corrections for ansatz F12/3C(FIX) added to CCSD(T)-F12a energy

  CCSD-F12b singlet pair energy        -0.627694477919
  CCSD-F12b triplet pair energy        -0.309271931288
  CCSD-F12b correlation energy         -0.936966433948

  Triples (T) contribution             -0.037635919373
  Total correlation energy             -0.974602353321

  CCSD-F12b total energy             -264.722506363450
  CCSD[T]-F12b energy                -264.762685192685
  CCSD-T-F12b energy                 -264.759205045814
 !CCSD(T)-F12b total energy          -264.760142282823

 Timing summary (sec):

 STEP                 CPU(USER)    SYS     CPU(TOT)    WALL
 Transformation          4.47      0.54      5.01      5.47
 CCSD iterations        26.28      1.50     27.78     27.74
 Triples                75.09      1.46     76.55     76.54
 MP2-F12                 8.79      1.21     10.00     10.47
 F12b energy             1.76      0.03      1.79      1.78

 Program statistics:

 Available memory in ccsd:                99998934
 Min. memory needed in ccsd:               4458306
 Max. memory used in ccsd:                 5958390
 Max. memory used in cckext:               6352469 (10 integral passes)



 **********************************************************************************************************************************
 DATASETS  * FILE   NREC   LENGTH (MB)   RECORD NAMES
              1      20      269.66       500      610      700      900      950      970     1000      129      960     1100   
                                          VAR    BASINP    GEOM    SYMINP    ZMAT    AOBASIS   BASIS     P2S    ABASIS      S 
                                         1400     1410     1200     1210     1080     1600     1650     1700      960(1)  1380   
                                           T        V       H0       H01     AOSYM     SMH    MOLCAS    OPER    ABASIS    JKOP   

              2       5        1.55       700     1000     2100     7360     7350   
                                         GEOM     BASIS     RHF    F12ABS    EF12   

 PROGRAMS   *        TOTAL   CCSD(T)        HF       INT
 CPU TIMES  *       125.98    116.44      3.58      5.89
 REAL TIME  *       132.92 SEC
 DISK USED  *         1.69 GB      
 SF USED    *         1.53 GB      
 GA USED    *         2.40 MB       (max)       0.00 MB       (current)
 **********************************************************************************************************************************

     CCSD(T)-F12        HF-SCF  
   -264.76014228   -263.76961689
 **********************************************************************************************************************************
 Variable memory released
