
 Primary working directories    : /scratch/kee
 Secondary working directories  : /scratch/kee
 Wavefunction directory         : /home/kee/wfu/
 Main file repository           : /scratch/kee/

 ARCHNAME  : Linux/x86_64
 FC        : /opt/intel/composer_xe_2015.0.090/bin/intel64/ifort
 FCVERSION : 15.0.0
 BLASLIB   : -L/opt/intel/mkl/lib/intel64 -lmkl_intel_ilp64 -lmkl_sequential -lmkl_core
 id        : emory

 Nodes     nprocs
 node17       3
 Number of processes for MPI-2 version of Molpro:   nprocs(total)=    4   nprocs(compute)=    3   nprocs(helper)=    1
 ga_uses_ma=false, calling ma_init with nominal heap.
 GA-space will be limited to   8.0 MW (determined by -G option)

 Using customized tuning parameters: mindgm=7; mindgv=32; mindgc=1; mindgr=1; noblas=0; mincuda=1000; minvec=7
 default implementation of scratch files=sf  

 ***,co2h2o
 memory,100,m
 basis avtz
 geomtype = xyz
 geometry = {
 6
    -264.76489694
 O     0.82869278    1.16169550    0.00000000
 O     0.82658011   -1.16233555    0.00000000
 O    -5.89123429    0.00232759    0.00000000
 H    -6.47486730    0.76292224    0.00000000
 H    -6.47459919   -0.75847433    0.00000000
 C     0.80876519   -0.00029961    0.00000000
 }
 hf
 ccsd(t)-f12
 ---

 Variables initialized (665), CPU time= 0.00 sec
 Commands  initialized (462), CPU time= 0.01 sec, 486 directives.
 Default parameters read. Elapsed time= 0.03 sec

 Checking input...
 Passed
1


                                         ***  PROGRAM SYSTEM MOLPRO  ***
                         Copyright, University College Cardiff Consultants Limited, 2008

                                    Version 2010.1 linked 9 Dec 2014 15:06:28 


 **********************************************************************************************************************************
 LABEL *   co2h2o                                                                        
 Linux-2.6.32-504.el6.x86_64/node17(x86_64) 64 bit mpp version                           DATE: 11-Dec-16          TIME: 23:02:22  
 **********************************************************************************************************************************

 Patch level:      19
 **********************************************************************************************************************************

 Variable memory set to  100000000 words,  buffer space   230000 words

 SETTING BASIS          =    AVTZ
 SETTING GEOMTYPE       =    XYZ

Geometry recognized as XYZ



 Recomputing integrals since basis changed


 Using spherical harmonics

 Library entry O      S aug-cc-pVTZ          selected for orbital group  1
 Library entry O      P aug-cc-pVTZ          selected for orbital group  1
 Library entry O      D aug-cc-pVTZ          selected for orbital group  1
 Library entry O      F aug-cc-pVTZ          selected for orbital group  1
 Library entry H      S aug-cc-pVTZ          selected for orbital group  2
 Library entry H      P aug-cc-pVTZ          selected for orbital group  2
 Library entry H      D aug-cc-pVTZ          selected for orbital group  2
 Library entry C      S aug-cc-pVTZ          selected for orbital group  3
 Library entry C      P aug-cc-pVTZ          selected for orbital group  3
 Library entry C      D aug-cc-pVTZ          selected for orbital group  3
 Library entry C      F aug-cc-pVTZ          selected for orbital group  3

1PROGRAM * SEWARD (Integral evaluation for generally contracted gaussian basis sets)     Author: Roland Lindh, 1990

 Geometry written to block  1 of record 700


 Point group  Cs  



 ATOMIC COORDINATES

 NR  ATOM    CHARGE       X              Y              Z

   1  O       8.00    1.566002401    2.195286343    0.000000000
   2  O       8.00    1.562010034   -2.196495862    0.000000000
   3  O       8.00  -11.132819384    0.004398508    0.000000000
   4  H       1.00  -12.235725934    1.441714093    0.000000000
   5  H       1.00  -12.235219280   -1.433308761    0.000000000
   6  C       6.00    1.528344714   -0.000566181    0.000000000

 Bond lengths in Bohr (Angstrom)

 1-6  2.196175405  2-6  2.196187724  3-4  1.811706088  3-5  1.811708509
     (1.162165971)     (1.162172490)     (0.958713571)     (0.958714852)

 Bond angles

  1-6-2  178.13918425   4-3-5  105.01947441

 NUCLEAR CHARGE:                   32
 NUMBER OF PRIMITIVE AOS:         322
 NUMBER OF SYMMETRY AOS:          282
 NUMBER OF CONTRACTIONS:          230   ( 152A'  +  78A"  )
 NUMBER OF CORE ORBITALS:           4   (   4A'  +   0A"  )
 NUMBER OF VALENCE ORBITALS:       18   (  14A'  +   4A"  )


 NUCLEAR REPULSION ENERGY   84.33518025


 Eigenvalues of metric

         1 0.349E-03 0.374E-03 0.392E-03 0.393E-03 0.899E-03 0.922E-03 0.166E-02 0.175E-02
         2 0.318E-02 0.348E-02 0.593E-02 0.124E-01 0.136E-01 0.293E-01 0.296E-01 0.317E-01


 Contracted 2-electron integrals neglected if value below      1.0D-11
 AO integral compression algorithm  1   Integral accuracy      1.0D-11

     353.894 MB (compressed) written to integral file ( 23.7%)

     Node minimum: 114.819 MB, node maximum: 121.373 MB


 NUMBER OF SORTED TWO-ELECTRON INTEGRALS:   59950380.     BUFFER LENGTH:  32768
 NUMBER OF SEGMENTS:   4  SEGMENT LENGTH:   15995235      RECORD LENGTH: 524288

 Memory used in sort:      16.55 MW

 SORT1 READ   186414363. AND WROTE    25527600. INTEGRALS IN     74 RECORDS. CPU TIME:     2.09 SEC, REAL TIME:     2.39 SEC
 SORT2 READ    76825042. AND WROTE   179836431. INTEGRALS IN   1389 RECORDS. CPU TIME:     0.84 SEC, REAL TIME:     1.10 SEC

 Node minimum:    59940574.  Node maximum:    59950380. integrals

 OPERATOR DM      FOR CENTER  0  COORDINATES:    0.000000    0.000000    0.000000


 **********************************************************************************************************************************
 DATASETS  * FILE   NREC   LENGTH (MB)   RECORD NAMES
              1      18        3.74       500      610      700      900      950      970     1000      129      960     1100   
                                          VAR    BASINP    GEOM    SYMINP    ZMAT    AOBASIS   BASIS     P2S    ABASIS      S 
                                         1400     1410     1200     1210     1080     1600     1650     1700   
                                           T        V       H0       H01     AOSYM     SMH    MOLCAS    OPER   

 PROGRAMS   *        TOTAL       INT
 CPU TIMES  *         6.19      6.12
 REAL TIME  *         6.90 SEC
 DISK USED  *         1.26 GB      
 GA USED    *         0.00 MB       (max)       0.00 MB       (current)
 **********************************************************************************************************************************

1PROGRAM * RHF-SCF (CLOSED SHELL)       Authors: W. Meyer, H.-J. Werner


 NUMBER OF ELECTRONS:      16+   16-
 CONVERGENCE THRESHOLDS:    1.00E-05 (Density)    1.00E-07 (Energy)
 MAX. NUMBER OF ITERATIONS:       60
 INTERPOLATION TYPE:            DIIS
 INTERPOLATION STEPS:              2 (START)      1 (STEP)
 LEVEL SHIFTS:                  0.00 (CLOSED)  0.00 (OPEN) 



 Orbital guess generated from atomic densities. Full valence occupancy:   18   4

 Molecular orbital dump at record        2100.2

 Initial alpha occupancy:  13   3
 Initial beta  occupancy:  13   3
 Wave function symmetry:    1

 ITERATION    DDIFF          GRAD             ENERGY        2-EL.EN.            DIPOLE MOMENTS         DIIS
    1      0.000D+00      0.000D+00      -263.66069050    364.339113   -1.18422   -0.00012    0.00000    0
    2      0.000D+00      0.629D-02      -263.72588779    359.725095   -0.69319   -0.00010    0.00000    1
    3      0.101D-01      0.427D-02      -263.76908300    362.291475   -0.81514   -0.00009    0.00000    2
    4      0.415D-02      0.402D-03      -263.76957802    362.080303   -0.81838   -0.00009    0.00000    3
    5      0.485D-03      0.117D-03      -263.76963601    362.081925   -0.81304   -0.00009    0.00000    4
    6      0.181D-03      0.472D-04      -263.76964318    362.096506   -0.81372   -0.00009    0.00000    5
    7      0.604D-04      0.115D-04      -263.76964391    362.088127   -0.81327   -0.00009    0.00000    6
    8      0.197D-04      0.254D-05      -263.76964396    362.089429   -0.81328   -0.00009    0.00000    7
    9      0.541D-05      0.851D-06      -263.76964396    362.089234   -0.81325   -0.00009    0.00000    0

 Final occupancy:  13   3

 !RHF STATE 1.1 Energy               -263.769643960032
 Nuclear energy                        84.33518025
 One-electron energy                 -529.14944132
 Two-electron energy                  181.04461712
 Virial quotient                       -1.00183032
 !RHF STATE 1.1 Dipole moment          -0.81325208    -0.00009117     0.00000000
 Dipole moment /Debye                  -2.06694523    -0.00023171     0.00000000

 Orbital energies:

         1.1          2.1          3.1          4.1          5.1          6.1          7.1          8.1          9.1         10.1
    -20.648909   -20.648863   -20.568270   -11.457725    -1.526571    -1.473480    -1.353520    -0.796855    -0.739119    -0.719050

        11.1         12.1         13.1         14.1         15.1
     -0.710570    -0.584808    -0.540247     0.028241     0.047021

         1.2          2.2          3.2          4.2          5.2
     -0.710654    -0.540305    -0.511156     0.076592     0.158049


 **********************************************************************************************************************************
 DATASETS  * FILE   NREC   LENGTH (MB)   RECORD NAMES
              1      18        3.76       500      610      700      900      950      970     1000      129      960     1100   
                                          VAR    BASINP    GEOM    SYMINP    ZMAT    AOBASIS   BASIS     P2S    ABASIS      S 
                                         1400     1410     1200     1210     1080     1600     1650     1700   
                                           T        V       H0       H01     AOSYM     SMH    MOLCAS    OPER   

              2       3        0.96       700     1000     2100   
                                         GEOM     BASIS     RHF  

 PROGRAMS   *        TOTAL        HF       INT
 CPU TIMES  *         9.94      3.75      6.12
 REAL TIME  *        11.65 SEC
 DISK USED  *         1.28 GB      
 SF USED    *         0.12 MB      
 GA USED    *         0.00 MB       (max)       0.00 MB       (current)
 **********************************************************************************************************************************


1PROGRAM * CCSD (Closed-shell coupled cluster)     Authors: C. Hampel, H.-J. Werner, 1991, M. Deegan, P.J. Knowles, 1992

                                  CCSD-F12 implementation by  H.-J. Werner, 2007

                   Density fitting integral evaluation by F.R. Manby, 2003,2007, G. Knizia, 2010

 Basis set CC-PVTZ/JKFIT generated.      Number of basis functions:   376 
 Basis set AUG-CC-PVTZ/MP2FIT generated. Number of basis functions:   516 

 Convergence thresholds:  THRVAR = 1.00D-08  THRDEN = 1.00D-06

 CCSD(T)     terms to be evaluated (factor= 1.000)


 Number of core orbitals:           4 (   4   0 )
 Number of closed-shell orbitals:  12 (   9   3 )
 Number of external orbitals:     214 ( 139  75 )

 Molecular orbitals read from record     2100.2  Type=RHF/CANONICAL (state 1.1)

 MP2-F12 correlation treatment (H.-J. Werner, 2006)
 --------------------------------------------------

 Using MP2-F12 with ansatz 3C(FIX)

 Using projected zeroth-order Hamiltonian (+Z)

 FOCKRIB=T FOCKRIC=T FOCKRIP=T CABSP=T CABSA=T CABSK=T CABSF=T GBC=F EBC=F DMAT=T NOFIK=T NOPAO=1 SOLVE=-1  USEPAO=0
 EXCH_A= T EXCH_B= F EXCH_C= F EXCH_P= F
 
 Geminal basis:    OPTFULL  GEM_TYPE=SLATER  BETA=1.0  NGEM=6

 Optimizing Gaussian exponents for each gem_beta

 Geminal optimization for beta= 1.0000
 Weight function:   m=0, omega= 1.4646

 Augmented Hessian optimization of geminal fit. Trust ratio= 0.40000
 Convergence reached after   2 iterations. Final gradient= 8.24D-16, Step= 4.32D-06, Delta= 1.28D-09
 
 Alpha:                 0.19532     0.81920     2.85917     9.50073    35.69989   197.79328
 Coeff:                 0.27070     0.30552     0.18297     0.10986     0.06810     0.04224
 

 Symmetry turned off. Reference energy:       -263.769643960032

 All pairs explicitly correlated. Number of r12-pairs:           78
 
 AO(A)-basis ORBITAL           loaded. Number of functions:     230
 RI(R)-basis CC-PVTZ/JKFIT     loaded. Number of functions:     376
 DF-basis CC-PVTZ/JKFIT        loaded. Number of functions:     376

 Screening thresholds:   THRAO=  1.00D-10  THRMO=  1.00D-09  THRPROD=  1.00D-09
                         THRSW=  1.00D-05  THROV=  1.00D-12  THRF12=   1.00D-08

 CPU time for Fock operators                      0.97 sec
 
 Construction of ABS:
 Smallest eigenvalue of S          2.57E-04  (threshold= 1.00E-08)
 Ratio eigmin/eigmax               1.83E-06  (threshold= 1.00E-09)
 Smallest eigenvalue of S kept     2.57E-04  (threshold= 2.57E-04, 0 functions deleted, 376 kept)
 
 Construction of CABS:
 Smallest eigenvalue of S          2.30E-08  (threshold= 1.00E-08)
 Ratio eigmin/eigmax               2.30E-08  (threshold= 1.00E-09)
 Smallest eigenvalue of S kept     2.30E-08  (threshold= 2.30E-08, 0 functions deleted, 376 kept)
 
 CPU time for CABS singles                        0.18 sec

 CABS-singles contribution of  -0.01592276 patched into reference energy.
 New reference energy        -263.78556672
 
 AO(A)-basis ORBITAL           loaded. Number of functions:     230
 RI(R)-basis CC-PVTZ/JKFIT     loaded. Number of functions:     376
 DF-basis AUG-CC-PVTZ/MP2FIT   loaded. Number of functions:     516

 Screening thresholds:   THRAO=  1.00D-10  THRMO=  1.00D-09  THRPROD=  1.00D-09
                         THRSW=  1.00D-05  THROV=  1.00D-12  THRF12=   1.00D-08

 CPU time for 3-index integral evaluation         2.04 sec
 CPU time for first  half transformation          0.26 sec ( 9491.9 MFLOP/sec)
 CPU time for second half transformation          0.02 sec ( 5113.4 MFLOP/sec)
 CPU time for sorting                             0.16 sec
 CPU time for fitting                             0.05 sec (27861.0 MFLOP/sec)
 CPU time for tilde quantities                    0.08 sec (23111.0 MFLOP/sec)
 CPU time for assembly                            0.81 sec (29106.9 MFLOP/sec)
 CPU time for tranop_f12                          0.93 sec (32376.2 MFLOP/sec)
 CPU time for f12 integrals (total)               6.49 sec
 F12-matrices built in  3 passes.
 F12-matrices built in  3 passes.
 F12-matrices built in  3 passes.
 F12-matrices built in  3 passes.
 FC-matrix built in  3 passes.
 CPU time for f12 matrices (total)                0.55 sec

 Diagonal F12 approximation with fixed coefficients:  TSING= 0.500,  TTRIP= 0.250 (scaled by -1/beta)

 DF-MP2-F12 energy corrections:
 ------------------------------
 Approx.                                    Singlet             Triplet             Total
 DF-MP2-F12/3*C(DX,FIX)                -0.097451013033     -0.016933749726     -0.114384762759
 DF-MP2-F12/3*C(FIX)                   -0.079867819608     -0.013395856104     -0.093263675712
 DF-MP2-F12/3C(FIX)                    -0.080228343911     -0.013418979147     -0.093647323058

 DF-MP2-F12 correlation energies:
 --------------------------------
 Approx.                                    Singlet             Triplet             Ecorr            Total Energy
 DF-MP2                                -0.537709939094     -0.343060681718     -0.880770620812   -264.666337343576
 DF-MP2-F12/3*C(DX,FIX)                -0.635160952127     -0.359994431444     -0.995155383571   -264.780722106335
 DF-MP2-F12/3*C(FIX)                   -0.617577758702     -0.356456537822     -0.974034296524   -264.759601019288
 DF-MP2-F12/3C(FIX)                    -0.617938283005     -0.356479660865     -0.974417943871   -264.759984666635

 SCS-DF-MP2 energies (F_SING= 1.20000  F_TRIP= 0.62222  F_PARALLEL= 0.33333):
 ----------------------------------------------------------------------------
 SCS-DF-MP2                            -0.858711906649   -264.644278629413
 SCS-DF-MP2-F12/3*C(DX,FIX)            -0.986189677673   -264.771756400437
 SCS-DF-MP2-F12/3*C(FIX)               -0.962888489532   -264.748455212296
 SCS-DF-MP2-F12/3C(FIX)                -0.963335506367   -264.748902229131

 Symmetry restored.
 Symmetry transformation completed.

 Number of N-1 electron functions:              12
 Number of N-2 electron functions:              78
 Number of singly external CSFs:              1476
 Number of doubly external CSFs:           1686804
 Total number of CSFs:                     1688281

 Pair and operator lists are different

 Length of J-op  integral file:             466.42 MB
 Length of K-op  integral file:             526.62 MB
 Length of 3-ext integral record:             0.00 MB

 Memory could be reduced to 76.61 Mwords without degradation in triples

 Integral transformation finished. Total CPU:   4.56 sec, npass=  1  Memory used:  24.61 MW

 Reference energy:                   -263.78556672

 Adding F12 terms to K(Cij), methodcc=6,  factor=1.0

 ITER.      SQ.NORM     CORR.ENERGY   TOTAL ENERGY   ENERGY CHANGE        DEN1      VAR(S)    VAR(P)  DIIS     TIME
   1      1.20213279    -0.86272837  -264.64829509     0.01805872     0.04668307  0.72D-02  0.56D-02  1  1    15.80
   2      1.21644209    -0.85850374  -264.64407046     0.00422463    -0.02014792  0.86D-04  0.59D-03  2  2    18.54
   3      1.22180183    -0.85860023  -264.64416696    -0.00009649    -0.00236385  0.13D-03  0.32D-04  3  3    21.74
   4      1.22460328    -0.85847247  -264.64403919     0.00012776    -0.00141114  0.76D-05  0.41D-05  4  4    24.48
   5      1.22563308    -0.85843479  -264.64400152     0.00003768    -0.00036629  0.56D-06  0.29D-06  5  5    27.23
   6      1.22579525    -0.85840793  -264.64397466     0.00002686    -0.00000805  0.40D-07  0.24D-07  6  6    29.97
   7      1.22582460    -0.85840551  -264.64397223     0.00000242    -0.00000621  0.25D-08  0.40D-08  6  4    32.75
   8      1.22582490    -0.85840502  -264.64397174     0.00000049     0.00000195  0.39D-09  0.27D-09  6  1    35.53
   9      1.22582551    -0.85840509  -264.64397181    -0.00000007     0.00000056  0.26D-10  0.21D-10  6  2    38.29

 Norm of t1 vector:      0.10595260      S-energy:    -0.00000002      T1 diagnostic:  0.01529294
                                                                       D1 diagnostic:  0.04495632

 Adding energy correction from Wij-K(Fij), methodcc=6  factor=1.0
 
  CCSD correlation energy              -0.858405088083
  MP2-F12 correction (uncoupled)       -0.092491119428
  C*T doubles correction               -0.001475230134
  f12b correction                       0.015407028373


 Total CPU time for triples:     80.59 sec


 RESULTS
 =======

  Reference energy                   -263.769643960031
  F12 singles correction               -0.015922762732

 F12 singles corrections added to reference energy

  New reference energy               -263.785566722763

  F12a singlet correction              -0.080428589840
  F12a triplet correction              -0.013537759722
  F12a total correction                -0.093966349562

 F12a corrections for ansatz F12/3C(FIX) added to CCSD energy
 
  CCSD-F12a singlet pair energy        -0.641875627151
  CCSD-F12a triplet pair energy        -0.310495785697
  CCSD-F12a correlation energy         -0.952371437645

  Triples (T) contribution             -0.037635603036
  Total correlation energy             -0.990007040682

  CCSD-F12a total energy             -264.737938160409
  CCSD[T]-F12a energy                -264.778116549675
  CCSD-T-F12a energy                 -264.774636590247
 !CCSD(T)-F12a total energy          -264.775573763445

 F12b corrections for ansatz F12/3C(FIX) added to CCSD(T)-F12a energy

  CCSD-F12b singlet pair energy        -0.627691963291
  CCSD-F12b triplet pair energy        -0.309272421184
  CCSD-F12b correlation energy         -0.936964409273

  Triples (T) contribution             -0.037635603036
  Total correlation energy             -0.974600012309

  CCSD-F12b total energy             -264.722531132036
  CCSD[T]-F12b energy                -264.762709521303
  CCSD-T-F12b energy                 -264.759229561874
 !CCSD(T)-F12b total energy          -264.760166735072

 Timing summary (sec):

 STEP                 CPU(USER)    SYS     CPU(TOT)    WALL
 Transformation          4.59      0.53      5.12      5.12
 CCSD iterations        25.09      1.50     26.59     27.28
 Triples                80.59      1.83     82.42     82.40
 MP2-F12                 8.61      1.20      9.81     10.41
 F12b energy             1.74      0.03      1.77      1.76

 Program statistics:

 Available memory in ccsd:                99998934
 Min. memory needed in ccsd:               4458306
 Max. memory used in ccsd:                 5958390
 Max. memory used in cckext:               6352469 (10 integral passes)



 **********************************************************************************************************************************
 DATASETS  * FILE   NREC   LENGTH (MB)   RECORD NAMES
              1      20      269.66       500      610      700      900      950      970     1000      129      960     1100   
                                          VAR    BASINP    GEOM    SYMINP    ZMAT    AOBASIS   BASIS     P2S    ABASIS      S 
                                         1400     1410     1200     1210     1080     1600     1650     1700      960(1)  1380   
                                           T        V       H0       H01     AOSYM     SMH    MOLCAS    OPER    ABASIS    JKOP   

              2       5        1.55       700     1000     2100     7360     7350   
                                         GEOM     BASIS     RHF    F12ABS    EF12   

 PROGRAMS   *        TOTAL   CCSD(T)        HF       INT
 CPU TIMES  *       130.63    120.68      3.75      6.12
 REAL TIME  *       138.91 SEC
 DISK USED  *         1.72 GB      
 SF USED    *         1.53 GB      
 GA USED    *         2.40 MB       (max)       0.00 MB       (current)
 **********************************************************************************************************************************

     CCSD(T)-F12        HF-SCF  
   -264.76016674   -263.76964396
 **********************************************************************************************************************************
 Variable memory released
