
 Primary working directories    : /scratch/kee
 Secondary working directories  : /scratch/kee
 Wavefunction directory         : /home/kee/wfu/
 Main file repository           : /scratch/kee/

 ARCHNAME  : Linux/x86_64
 FC        : /opt/intel/composer_xe_2015.0.090/bin/intel64/ifort
 FCVERSION : 15.0.0
 BLASLIB   : -L/opt/intel/mkl/lib/intel64 -lmkl_intel_ilp64 -lmkl_sequential -lmkl_core
 id        : emory

 Nodes     nprocs
 node22       3
 Number of processes for MPI-2 version of Molpro:   nprocs(total)=    4   nprocs(compute)=    3   nprocs(helper)=    1
 ga_uses_ma=false, calling ma_init with nominal heap.
 GA-space will be limited to   8.0 MW (determined by -G option)

 Using customized tuning parameters: mindgm=7; mindgv=32; mindgc=1; mindgr=1; noblas=0; mincuda=1000; minvec=7
 default implementation of scratch files=sf  

 ***,co2h2o
 memory,100,m
 basis avtz
 geomtype = xyz
 geometry = {
 6
       0.00000000
 O     0.01288800    1.16233300    0.00000000
 O     0.01288800   -1.16233300    0.00000000
 O     2.15363900    0.00000000    0.00000000
 H     1.57249900    0.76306800    0.00000000
 H     1.57249900   -0.76306800    0.00000000
 C     0.00363900    0.00000000    0.00000000
 }
 hf
 ccsd(t)-f12
 ---

 Variables initialized (665), CPU time= 0.01 sec
 Commands  initialized (462), CPU time= 0.00 sec, 486 directives.
 Default parameters read. Elapsed time= 0.03 sec

 Checking input...
 Passed
1


                                         ***  PROGRAM SYSTEM MOLPRO  ***
                         Copyright, University College Cardiff Consultants Limited, 2008

                                    Version 2010.1 linked 9 Dec 2014 15:06:28 


 **********************************************************************************************************************************
 LABEL *   co2h2o                                                                        
 Linux-2.6.32-504.el6.x86_64/node22(x86_64) 64 bit mpp version                           DATE: 15-Dec-16          TIME: 00:13:03  
 **********************************************************************************************************************************

 Patch level:      19
 **********************************************************************************************************************************

 Variable memory set to  100000000 words,  buffer space   230000 words

 SETTING BASIS          =    AVTZ
 SETTING GEOMTYPE       =    XYZ

Geometry recognized as XYZ



 Recomputing integrals since basis changed


 Using spherical harmonics

 Library entry O      S aug-cc-pVTZ          selected for orbital group  1
 Library entry O      P aug-cc-pVTZ          selected for orbital group  1
 Library entry O      D aug-cc-pVTZ          selected for orbital group  1
 Library entry O      F aug-cc-pVTZ          selected for orbital group  1
 Library entry H      S aug-cc-pVTZ          selected for orbital group  2
 Library entry H      P aug-cc-pVTZ          selected for orbital group  2
 Library entry H      D aug-cc-pVTZ          selected for orbital group  2
 Library entry C      S aug-cc-pVTZ          selected for orbital group  3
 Library entry C      P aug-cc-pVTZ          selected for orbital group  3
 Library entry C      D aug-cc-pVTZ          selected for orbital group  3
 Library entry C      F aug-cc-pVTZ          selected for orbital group  3

1PROGRAM * SEWARD (Integral evaluation for generally contracted gaussian basis sets)     Author: Roland Lindh, 1990

 Geometry written to block  1 of record 700


 Point group  C2v 



 ATOMIC COORDINATES

 NR  ATOM    CHARGE       X              Y              Z

   1  O       8.00    0.024354790    2.196491044    0.000000000
   2  O       8.00    0.024354790   -2.196491044    0.000000000
   3  O       8.00    4.069787896    0.000000000    0.000000000
   4  H       1.00    2.971592452    1.441989540    0.000000000
   5  H       1.00    2.971592452   -1.441989540    0.000000000
   6  C       6.00    0.006876713    0.000000000    0.000000000

 Bond lengths in Bohr (Angstrom)

 1-6  2.196560581  2-6  2.196560581  3-4  1.812558155  3-5  1.812558155
     (1.162369798)     (1.162369798)     (0.959164466)     (0.959164466)

 Bond angles

  1-6-2  179.08818302   4-3-5  105.41539946

 NUCLEAR CHARGE:                   32
 NUMBER OF PRIMITIVE AOS:         322
 NUMBER OF SYMMETRY AOS:          282
 NUMBER OF CONTRACTIONS:          230   (  84A1  +  68B1  +  45B2  +  33A2  )
 NUMBER OF CORE ORBITALS:           4   (   3A1  +   1B1  +   0B2  +   0A2  )
 NUMBER OF VALENCE ORBITALS:       18   (   8A1  +   6B1  +   3B2  +   1A2  )


 NUCLEAR REPULSION ENERGY  119.38409791


 Eigenvalues of metric

         1 0.108E-03 0.189E-03 0.306E-03 0.667E-03 0.776E-03 0.132E-02 0.172E-02 0.264E-02
         2 0.150E-03 0.259E-03 0.528E-03 0.588E-03 0.955E-03 0.152E-02 0.205E-02 0.296E-02
         3 0.294E-02 0.350E-02 0.126E-01 0.147E-01 0.245E-01 0.303E-01 0.363E-01 0.385E-01
         4 0.330E-02 0.834E-02 0.216E-01 0.262E-01 0.293E-01 0.491E-01 0.590E-01 0.947E-01


 Contracted 2-electron integrals neglected if value below      1.0D-11
 AO integral compression algorithm  1   Integral accuracy      1.0D-11

     469.762 MB (compressed) written to integral file ( 52.3%)

     Node minimum: 147.063 MB, node maximum: 166.986 MB


 NUMBER OF SORTED TWO-ELECTRON INTEGRALS:   30156294.     BUFFER LENGTH:  32768
 NUMBER OF SEGMENTS:   2  SEGMENT LENGTH:   15999663      RECORD LENGTH: 524288

 Memory used in sort:      16.56 MW

 SORT1 READ   112167128. AND WROTE    29593508. INTEGRALS IN     85 RECORDS. CPU TIME:     2.27 SEC, REAL TIME:     2.69 SEC
 SORT2 READ    88820596. AND WROTE    90461370. INTEGRALS IN   1683 RECORDS. CPU TIME:     0.61 SEC, REAL TIME:     0.87 SEC

 Node minimum:    30151286.  Node maximum:    30156294. integrals

 OPERATOR DM      FOR CENTER  0  COORDINATES:    0.000000    0.000000    0.000000


 **********************************************************************************************************************************
 DATASETS  * FILE   NREC   LENGTH (MB)   RECORD NAMES
              1      18        3.24       500      610      700      900      950      970     1000      129      960     1100   
                                          VAR    BASINP    GEOM    SYMINP    ZMAT    AOBASIS   BASIS     P2S    ABASIS      S 
                                         1400     1410     1200     1210     1080     1600     1650     1700   
                                           T        V       H0       H01     AOSYM     SMH    MOLCAS    OPER   

 PROGRAMS   *        TOTAL       INT
 CPU TIMES  *         5.73      5.66
 REAL TIME  *         6.59 SEC
 DISK USED  *         1.52 GB      
 GA USED    *         0.00 MB       (max)       0.00 MB       (current)
 **********************************************************************************************************************************

1PROGRAM * RHF-SCF (CLOSED SHELL)       Authors: W. Meyer, H.-J. Werner


 NUMBER OF ELECTRONS:      16+   16-
 CONVERGENCE THRESHOLDS:    1.00E-05 (Density)    1.00E-07 (Energy)
 MAX. NUMBER OF ITERATIONS:       60
 INTERPOLATION TYPE:            DIIS
 INTERPOLATION STEPS:              2 (START)      1 (STEP)
 LEVEL SHIFTS:                  0.00 (CLOSED)  0.00 (OPEN) 



 Orbital guess generated from atomic densities. Full valence occupancy:   11   7   3   1

 Molecular orbital dump at record        2100.2

 Initial alpha occupancy:   8   5   2   1
 Initial beta  occupancy:   8   5   2   1
 Wave function symmetry:    1

 ITERATION    DDIFF          GRAD             ENERGY        2-EL.EN.            DIPOLE MOMENTS         DIIS
    1      0.000D+00      0.000D+00      -263.57402752    430.926297   -1.46774    0.00000    0.00000    0
    2      0.000D+00      0.932D-02      -263.65145519    428.843603   -0.82074    0.00000    0.00000    1
    3      0.148D-01      0.608D-02      -263.69672375    430.485741   -0.98112    0.00000    0.00000    2
    4      0.588D-02      0.629D-03      -263.69740547    430.218899   -0.97579    0.00000    0.00000    3
    5      0.853D-03      0.222D-03      -263.69749783    430.256480   -0.96584    0.00000    0.00000    4
    6      0.299D-03      0.744D-04      -263.69750876    430.276273   -0.96582    0.00000    0.00000    5
    7      0.103D-03      0.204D-04      -263.69750997    430.267415   -0.96506    0.00000    0.00000    6
    8      0.357D-04      0.386D-05      -263.69751003    430.268739   -0.96507    0.00000    0.00000    7
    9      0.842D-05      0.117D-05      -263.69751003    430.268653   -0.96504    0.00000    0.00000    0

 Final occupancy:   8   5   2   1

 !RHF STATE 1.1 Energy               -263.697510029984
 Nuclear energy                       119.38409791
 One-electron energy                 -598.21593450
 Two-electron energy                  215.13432656
 Virial quotient                       -1.00008650
 !RHF STATE 1.1 Dipole moment          -0.96504066     0.00000000     0.00000000
 Dipole moment /Debye                  -2.45272805     0.00000000     0.00000000

 Orbital energies:

         1.1          2.1          3.1          4.1          5.1          6.1          7.1          8.1          9.1         10.1
    -20.680218   -20.546666   -11.503845    -1.579769    -1.360551    -0.837728    -0.782898    -0.549514     0.031131     0.064269

         1.2          2.2          3.2          4.2          5.2          6.2          7.2
    -20.680261    -1.520330    -0.780480    -0.749446    -0.566081     0.053567     0.095722

         1.3          2.3          3.3          4.3
     -0.752753    -0.504787     0.069535     0.167158

         1.4          2.4          3.4
     -0.578313     0.154764     0.315833


 **********************************************************************************************************************************
 DATASETS  * FILE   NREC   LENGTH (MB)   RECORD NAMES
              1      18        3.25       500      610      700      900      950      970     1000      129      960     1100   
                                          VAR    BASINP    GEOM    SYMINP    ZMAT    AOBASIS   BASIS     P2S    ABASIS      S 
                                         1400     1410     1200     1210     1080     1600     1650     1700   
                                           T        V       H0       H01     AOSYM     SMH    MOLCAS    OPER   

              2       3        0.68       700     1000     2100   
                                         GEOM     BASIS     RHF  

 PROGRAMS   *        TOTAL        HF       INT
 CPU TIMES  *         6.93      1.20      5.66
 REAL TIME  *         7.95 SEC
 DISK USED  *         1.53 GB      
 SF USED    *         0.06 MB      
 GA USED    *         0.00 MB       (max)       0.00 MB       (current)
 **********************************************************************************************************************************


1PROGRAM * CCSD (Closed-shell coupled cluster)     Authors: C. Hampel, H.-J. Werner, 1991, M. Deegan, P.J. Knowles, 1992

                                  CCSD-F12 implementation by  H.-J. Werner, 2007

                   Density fitting integral evaluation by F.R. Manby, 2003,2007, G. Knizia, 2010

 Basis set CC-PVTZ/JKFIT generated.      Number of basis functions:   376 
 Basis set AUG-CC-PVTZ/MP2FIT generated. Number of basis functions:   516 

 Convergence thresholds:  THRVAR = 1.00D-08  THRDEN = 1.00D-06

 CCSD(T)     terms to be evaluated (factor= 1.000)


 Number of core orbitals:           4 (   3   1   0   0 )
 Number of closed-shell orbitals:  12 (   5   4   2   1 )
 Number of external orbitals:     214 (  76  63  43  32 )

 Molecular orbitals read from record     2100.2  Type=RHF/CANONICAL (state 1.1)

 MP2-F12 correlation treatment (H.-J. Werner, 2006)
 --------------------------------------------------

 Using MP2-F12 with ansatz 3C(FIX)

 Using projected zeroth-order Hamiltonian (+Z)

 FOCKRIB=T FOCKRIC=T FOCKRIP=T CABSP=T CABSA=T CABSK=T CABSF=T GBC=F EBC=F DMAT=T NOFIK=T NOPAO=1 SOLVE=-1  USEPAO=0
 EXCH_A= T EXCH_B= F EXCH_C= F EXCH_P= F
 
 Geminal basis:    OPTFULL  GEM_TYPE=SLATER  BETA=1.0  NGEM=6

 Optimizing Gaussian exponents for each gem_beta

 Geminal optimization for beta= 1.0000
 Weight function:   m=0, omega= 1.4646

 Augmented Hessian optimization of geminal fit. Trust ratio= 0.40000
 Convergence reached after   2 iterations. Final gradient= 8.24D-16, Step= 4.32D-06, Delta= 1.28D-09
 
 Alpha:                 0.19532     0.81920     2.85917     9.50073    35.69989   197.79328
 Coeff:                 0.27070     0.30552     0.18297     0.10986     0.06810     0.04224
 

 Symmetry turned off. Reference energy:       -263.697510029984

 All pairs explicitly correlated. Number of r12-pairs:           78
 
 AO(A)-basis ORBITAL           loaded. Number of functions:     230
 RI(R)-basis CC-PVTZ/JKFIT     loaded. Number of functions:     376
 DF-basis CC-PVTZ/JKFIT        loaded. Number of functions:     376

 Screening thresholds:   THRAO=  1.00D-10  THRMO=  1.00D-09  THRPROD=  1.00D-09
                         THRSW=  1.00D-05  THROV=  1.00D-12  THRF12=   1.00D-08

 CPU time for Fock operators                      0.95 sec
 
 Construction of ABS:
 Smallest eigenvalue of S          1.90E-04  (threshold= 1.00E-08)
 Ratio eigmin/eigmax               1.35E-06  (threshold= 1.00E-09)
 Smallest eigenvalue of S kept     1.90E-04  (threshold= 1.90E-04, 0 functions deleted, 376 kept)
 
 Construction of CABS:
 Smallest eigenvalue of S          2.07E-08  (threshold= 1.00E-08)
 Ratio eigmin/eigmax               2.07E-08  (threshold= 1.00E-09)
 Smallest eigenvalue of S kept     2.07E-08  (threshold= 2.07E-08, 0 functions deleted, 376 kept)
 
 CPU time for CABS singles                        0.16 sec

 CABS-singles contribution of  -0.01595167 patched into reference energy.
 New reference energy        -263.71346170
 
 AO(A)-basis ORBITAL           loaded. Number of functions:     230
 RI(R)-basis CC-PVTZ/JKFIT     loaded. Number of functions:     376
 DF-basis AUG-CC-PVTZ/MP2FIT   loaded. Number of functions:     516

 Screening thresholds:   THRAO=  1.00D-10  THRMO=  1.00D-09  THRPROD=  1.00D-09
                         THRSW=  1.00D-05  THROV=  1.00D-12  THRF12=   1.00D-08

 CPU time for 3-index integral evaluation         3.25 sec
 CPU time for first  half transformation          0.21 sec (14185.8 MFLOP/sec)
 CPU time for second half transformation          0.02 sec ( 5422.8 MFLOP/sec)
 CPU time for sorting                             0.17 sec
 CPU time for fitting                             0.03 sec (46435.0 MFLOP/sec)
 CPU time for tilde quantities                    0.05 sec (37148.0 MFLOP/sec)
 CPU time for assembly                            0.79 sec (30276.7 MFLOP/sec)
 CPU time for tranop_f12                          0.86 sec (34988.2 MFLOP/sec)
 CPU time for f12 integrals (total)               7.41 sec
 F12-matrices built in  3 passes.
 F12-matrices built in  3 passes.
 F12-matrices built in  3 passes.
 F12-matrices built in  3 passes.
 FC-matrix built in  3 passes.
 CPU time for f12 matrices (total)                0.51 sec

 Diagonal F12 approximation with fixed coefficients:  TSING= 0.500,  TTRIP= 0.250 (scaled by -1/beta)

 DF-MP2-F12 energy corrections:
 ------------------------------
 Approx.                                    Singlet             Triplet             Total
 DF-MP2-F12/3*C(DX,FIX)                -0.097497107053     -0.017297172887     -0.114794279939
 DF-MP2-F12/3*C(FIX)                   -0.079764235345     -0.013740472532     -0.093504707877
 DF-MP2-F12/3C(FIX)                    -0.080195396047     -0.013826491006     -0.094021887053

 DF-MP2-F12 correlation energies:
 --------------------------------
 Approx.                                    Singlet             Triplet             Ecorr            Total Energy
 DF-MP2                                -0.540783370688     -0.354675077752     -0.895458448440   -264.608920153012
 DF-MP2-F12/3*C(DX,FIX)                -0.638280477741     -0.371972250638     -1.010252728379   -264.723714432952
 DF-MP2-F12/3*C(FIX)                   -0.620547606033     -0.368415550284     -0.988963156317   -264.702424860890
 DF-MP2-F12/3C(FIX)                    -0.620978766735     -0.368501568758     -0.989480335493   -264.702942040066

 SCS-DF-MP2 energies (F_SING= 1.20000  F_TRIP= 0.62222  F_PARALLEL= 0.33333):
 ----------------------------------------------------------------------------
 SCS-DF-MP2                            -0.869626759871   -264.583088464444
 SCS-DF-MP2-F12/3*C(DX,FIX)            -0.997385973686   -264.710847678259
 SCS-DF-MP2-F12/3*C(FIX)               -0.973893469639   -264.687355174211
 SCS-DF-MP2-F12/3C(FIX)                -0.974464385087   -264.687926089660

 Symmetry restored.
 Symmetry transformation completed.

 Number of N-1 electron functions:              12
 Number of N-2 electron functions:              78
 Number of singly external CSFs:               750
 Number of doubly external CSFs:            844332
 Total number of CSFs:                      845083

 Pair and operator lists are different

 Length of J-op  integral file:             462.28 MB
 Length of K-op  integral file:             502.25 MB
 Length of 3-ext integral record:             0.00 MB

 Memory could be reduced to 38.71 Mwords without degradation in triples

 Integral transformation finished. Total CPU:   1.47 sec, npass=  1  Memory used:   7.09 MW

 Reference energy:                   -263.71346170

 Adding F12 terms to K(Cij), methodcc=6,  factor=1.0

 ITER.      SQ.NORM     CORR.ENERGY   TOTAL ENERGY   ENERGY CHANGE        DEN1      VAR(S)    VAR(P)  DIIS     TIME
   1      1.20190133    -0.87530439  -264.58876609     0.02015329     0.04938084  0.77D-02  0.56D-02  1  1    11.72
   2      1.21624298    -0.87080400  -264.58426570     0.00450039    -0.02056881  0.96D-04  0.57D-03  2  2    12.66
   3      1.22156478    -0.87088811  -264.58434981    -0.00008411    -0.00220468  0.14D-03  0.30D-04  3  3    13.63
   4      1.22443447    -0.87072065  -264.58418235     0.00016746    -0.00141156  0.95D-05  0.40D-05  4  4    14.57
   5      1.22552779    -0.87067985  -264.58414156     0.00004080    -0.00037661  0.11D-05  0.30D-06  5  5    15.51
   6      1.22571076    -0.87065310  -264.58411480     0.00002675    -0.00000621  0.11D-06  0.52D-07  6  6    16.47
   7      1.22575843    -0.87064908  -264.58411078     0.00000402    -0.00000716  0.35D-07  0.73D-08  6  2    17.41
   8      1.22576487    -0.87064868  -264.58411039     0.00000040     0.00000135  0.38D-08  0.16D-08  6  1    18.36
   9      1.22576580    -0.87064909  -264.58411079    -0.00000041     0.00000179  0.65D-09  0.20D-09  6  4    19.30

 Norm of t1 vector:      0.11009625      S-energy:     0.00000013      T1 diagnostic:  0.01589102
                                                                       D1 diagnostic:  0.04827230

 Adding energy correction from Wij-K(Fij), methodcc=6  factor=1.0
 
  CCSD correlation energy              -0.870649087767
  MP2-F12 correction (uncoupled)       -0.092669713111
  C*T doubles correction               -0.001589608471
  f12b correction                       0.015428320706


 Total CPU time for triples:     30.26 sec


 RESULTS
 =======

  Reference energy                   -263.697510029985
  F12 singles correction               -0.015951674588

 F12 singles corrections added to reference energy

  New reference energy               -263.713461704573

  F12a singlet correction              -0.080354257366
  F12a triplet correction              -0.013905064215
  F12a total correction                -0.094259321582

 F12a corrections for ansatz F12/3C(FIX) added to CCSD energy
 
  CCSD-F12a singlet pair energy        -0.642508569618
  CCSD-F12a triplet pair energy        -0.322399965613
  CCSD-F12a correlation energy         -0.964908409349

  Triples (T) contribution             -0.039861580307
  Total correlation energy             -1.004769989656

  CCSD-F12a total energy             -264.678370113921
  CCSD[T]-F12a energy                -264.720935484206
  CCSD-T-F12a energy                 -264.717261143076
 !CCSD(T)-F12a total energy          -264.718231694228

 F12b corrections for ansatz F12/3C(FIX) added to CCSD(T)-F12a energy

  CCSD-F12b singlet pair energy        -0.628346510272
  CCSD-F12b triplet pair energy        -0.321133704252
  CCSD-F12b correlation energy         -0.949480088642

  Triples (T) contribution             -0.039861580307
  Total correlation energy             -0.989341668949

  CCSD-F12b total energy             -264.662941793215
  CCSD[T]-F12b energy                -264.705507163500
  CCSD-T-F12b energy                 -264.701832822370
 !CCSD(T)-F12b total energy          -264.702803373522

 Timing summary (sec):

 STEP                 CPU(USER)    SYS     CPU(TOT)    WALL
 Transformation          1.48      0.22      1.70      1.71
 CCSD iterations         8.46      0.78      9.24      9.25
 Triples                30.26      0.85     31.11     31.09
 MP2-F12                 9.36      1.17     10.53     10.53
 F12b energy             0.57      0.02      0.59      0.59

 Program statistics:

 Available memory in ccsd:                99998934
 Min. memory needed in ccsd:               2252999
 Max. memory used in ccsd:                 3011949
 Max. memory used in cckext:               2777209 (10 integral passes)



 **********************************************************************************************************************************
 DATASETS  * FILE   NREC   LENGTH (MB)   RECORD NAMES
              1      20      137.17       500      610      700      900      950      970     1000      129      960     1100   
                                          VAR    BASINP    GEOM    SYMINP    ZMAT    AOBASIS   BASIS     P2S    ABASIS      S 
                                         1400     1410     1200     1210     1080     1600     1650     1700      960(1)  1380   
                                           T        V       H0       H01     AOSYM     SMH    MOLCAS    OPER    ABASIS    JKOP   

              2       5        0.98       700     1000     2100     7360     7350   
                                         GEOM     BASIS     RHF    F12ABS    EF12   

 PROGRAMS   *        TOTAL   CCSD(T)        HF       INT
 CPU TIMES  *        57.17     50.24      1.20      5.66
 REAL TIME  *        61.39 SEC
 DISK USED  *         1.76 GB      
 SF USED    *         1.34 GB      
 GA USED    *         2.40 MB       (max)       0.00 MB       (current)
 **********************************************************************************************************************************

     CCSD(T)-F12        HF-SCF  
   -264.70280337   -263.69751003
 **********************************************************************************************************************************
 Variable memory released
