
 Primary working directories    : /scratch/kee
 Secondary working directories  : /scratch/kee
 Wavefunction directory         : /home/kee/wfu/
 Main file repository           : /scratch/kee/

 ARCHNAME  : Linux/x86_64
 FC        : /opt/intel/composer_xe_2015.0.090/bin/intel64/ifort
 FCVERSION : 15.0.0
 BLASLIB   : -L/opt/intel/mkl/lib/intel64 -lmkl_intel_ilp64 -lmkl_sequential -lmkl_core
 id        : emory

 Nodes     nprocs
 node22       3
 Number of processes for MPI-2 version of Molpro:   nprocs(total)=    4   nprocs(compute)=    3   nprocs(helper)=    1
 ga_uses_ma=false, calling ma_init with nominal heap.
 GA-space will be limited to   8.0 MW (determined by -G option)

 Using customized tuning parameters: mindgm=7; mindgv=32; mindgc=1; mindgr=1; noblas=0; mincuda=1000; minvec=7
 default implementation of scratch files=sf  

 ***,co2h2o
 memory,100,m
 basis avtz
 geomtype = xyz
 geometry = {
 6
       0.00000000
 O     0.01288800    1.16233300    0.00000000
 O     0.01288800   -1.16233300    0.00000000
 O     2.35363900    0.00000000    0.00000000
 H     1.77249900    0.76306800    0.00000000
 H     1.77249900   -0.76306800    0.00000000
 C     0.00363900    0.00000000    0.00000000
 }
 hf
 ccsd(t)-f12
 ---

 Variables initialized (665), CPU time= 0.00 sec
 Commands  initialized (462), CPU time= 0.01 sec, 486 directives.
 Default parameters read. Elapsed time= 0.04 sec

 Checking input...
 Passed
1


                                         ***  PROGRAM SYSTEM MOLPRO  ***
                         Copyright, University College Cardiff Consultants Limited, 2008

                                    Version 2010.1 linked 9 Dec 2014 15:06:28 


 **********************************************************************************************************************************
 LABEL *   co2h2o                                                                        
 Linux-2.6.32-504.el6.x86_64/node22(x86_64) 64 bit mpp version                           DATE: 15-Dec-16          TIME: 00:16:59  
 **********************************************************************************************************************************

 Patch level:      19
 **********************************************************************************************************************************

 Variable memory set to  100000000 words,  buffer space   230000 words

 SETTING BASIS          =    AVTZ
 SETTING GEOMTYPE       =    XYZ

Geometry recognized as XYZ



 Recomputing integrals since basis changed


 Using spherical harmonics

 Library entry O      S aug-cc-pVTZ          selected for orbital group  1
 Library entry O      P aug-cc-pVTZ          selected for orbital group  1
 Library entry O      D aug-cc-pVTZ          selected for orbital group  1
 Library entry O      F aug-cc-pVTZ          selected for orbital group  1
 Library entry H      S aug-cc-pVTZ          selected for orbital group  2
 Library entry H      P aug-cc-pVTZ          selected for orbital group  2
 Library entry H      D aug-cc-pVTZ          selected for orbital group  2
 Library entry C      S aug-cc-pVTZ          selected for orbital group  3
 Library entry C      P aug-cc-pVTZ          selected for orbital group  3
 Library entry C      D aug-cc-pVTZ          selected for orbital group  3
 Library entry C      F aug-cc-pVTZ          selected for orbital group  3

1PROGRAM * SEWARD (Integral evaluation for generally contracted gaussian basis sets)     Author: Roland Lindh, 1990

 Geometry written to block  1 of record 700


 Point group  C2v 



 ATOMIC COORDINATES

 NR  ATOM    CHARGE       X              Y              Z

   1  O       8.00    0.024354790    2.196491044    0.000000000
   2  O       8.00    0.024354790   -2.196491044    0.000000000
   3  O       8.00    4.447733122    0.000000000    0.000000000
   4  H       1.00    3.349537678    1.441989540    0.000000000
   5  H       1.00    3.349537678   -1.441989540    0.000000000
   6  C       6.00    0.006876713    0.000000000    0.000000000

 Bond lengths in Bohr (Angstrom)

 1-6  2.196560581  2-6  2.196560581  3-4  1.812558155  3-5  1.812558155
     (1.162369798)     (1.162369798)     (0.959164466)     (0.959164466)

 Bond angles

  1-6-2  179.08818302   4-3-5  105.41539946

 NUCLEAR CHARGE:                   32
 NUMBER OF PRIMITIVE AOS:         322
 NUMBER OF SYMMETRY AOS:          282
 NUMBER OF CONTRACTIONS:          230   (  84A1  +  68B1  +  45B2  +  33A2  )
 NUMBER OF CORE ORBITALS:           4   (   3A1  +   1B1  +   0B2  +   0A2  )
 NUMBER OF VALENCE ORBITALS:       18   (   8A1  +   6B1  +   3B2  +   1A2  )


 NUCLEAR REPULSION ENERGY  115.40872734


 Eigenvalues of metric

         1 0.145E-03 0.223E-03 0.390E-03 0.806E-03 0.832E-03 0.146E-02 0.207E-02 0.286E-02
         2 0.191E-03 0.276E-03 0.612E-03 0.646E-03 0.109E-02 0.167E-02 0.226E-02 0.382E-02
         3 0.301E-02 0.384E-02 0.129E-01 0.188E-01 0.295E-01 0.311E-01 0.397E-01 0.454E-01
         4 0.340E-02 0.922E-02 0.248E-01 0.293E-01 0.387E-01 0.516E-01 0.625E-01 0.111E+00


 Contracted 2-electron integrals neglected if value below      1.0D-11
 AO integral compression algorithm  1   Integral accuracy      1.0D-11

     462.946 MB (compressed) written to integral file ( 51.6%)

     Node minimum: 145.752 MB, node maximum: 161.743 MB


 NUMBER OF SORTED TWO-ELECTRON INTEGRALS:   30156294.     BUFFER LENGTH:  32768
 NUMBER OF SEGMENTS:   2  SEGMENT LENGTH:   15999663      RECORD LENGTH: 524288

 Memory used in sort:      16.56 MW

 SORT1 READ   112167128. AND WROTE    29480735. INTEGRALS IN     85 RECORDS. CPU TIME:     2.40 SEC, REAL TIME:     2.73 SEC
 SORT2 READ    88500605. AND WROTE    90461370. INTEGRALS IN   1779 RECORDS. CPU TIME:     0.60 SEC, REAL TIME:     0.86 SEC

 Node minimum:    30151286.  Node maximum:    30156294. integrals

 OPERATOR DM      FOR CENTER  0  COORDINATES:    0.000000    0.000000    0.000000


 **********************************************************************************************************************************
 DATASETS  * FILE   NREC   LENGTH (MB)   RECORD NAMES
              1      18        3.24       500      610      700      900      950      970     1000      129      960     1100   
                                          VAR    BASINP    GEOM    SYMINP    ZMAT    AOBASIS   BASIS     P2S    ABASIS      S 
                                         1400     1410     1200     1210     1080     1600     1650     1700   
                                           T        V       H0       H01     AOSYM     SMH    MOLCAS    OPER   

 PROGRAMS   *        TOTAL       INT
 CPU TIMES  *         5.72      5.65
 REAL TIME  *         6.44 SEC
 DISK USED  *         1.51 GB      
 GA USED    *         0.00 MB       (max)       0.00 MB       (current)
 **********************************************************************************************************************************

1PROGRAM * RHF-SCF (CLOSED SHELL)       Authors: W. Meyer, H.-J. Werner


 NUMBER OF ELECTRONS:      16+   16-
 CONVERGENCE THRESHOLDS:    1.00E-05 (Density)    1.00E-07 (Energy)
 MAX. NUMBER OF ITERATIONS:       60
 INTERPOLATION TYPE:            DIIS
 INTERPOLATION STEPS:              2 (START)      1 (STEP)
 LEVEL SHIFTS:                  0.00 (CLOSED)  0.00 (OPEN) 



 Orbital guess generated from atomic densities. Full valence occupancy:   11   7   3   1

 Molecular orbital dump at record        2100.2

 Initial alpha occupancy:   8   5   2   1
 Initial beta  occupancy:   8   5   2   1
 Wave function symmetry:    1

 ITERATION    DDIFF          GRAD             ENERGY        2-EL.EN.            DIPOLE MOMENTS         DIIS
    1      0.000D+00      0.000D+00      -263.61453148    423.383917   -1.38157    0.00000    0.00000    0
    2      0.000D+00      0.912D-02      -263.68751357    420.991582   -0.81051    0.00000    0.00000    1
    3      0.145D-01      0.604D-02      -263.73216753    422.802588   -0.94298    0.00000    0.00000    2
    4      0.585D-02      0.625D-03      -263.73280059    422.541119   -0.93731    0.00000    0.00000    3
    5      0.806D-03      0.203D-03      -263.73288096    422.570242   -0.92813    0.00000    0.00000    4
    6      0.285D-03      0.717D-04      -263.73289024    422.588038   -0.92796    0.00000    0.00000    5
    7      0.955D-04      0.188D-04      -263.73289126    422.579852   -0.92717    0.00000    0.00000    6
    8      0.333D-04      0.373D-05      -263.73289132    422.581109   -0.92715    0.00000    0.00000    7
    9      0.819D-05      0.115D-05      -263.73289132    422.581007   -0.92712    0.00000    0.00000    0

 Final occupancy:   8   5   2   1

 !RHF STATE 1.1 Energy               -263.732891321520
 Nuclear energy                       115.40872734
 One-electron energy                 -590.43212200
 Two-electron energy                  211.29050334
 Virial quotient                       -1.00088154
 !RHF STATE 1.1 Dipole moment          -0.92711873     0.00000000     0.00000000
 Dipole moment /Debye                  -2.35634642     0.00000000     0.00000000

 Orbital energies:

         1.1          2.1          3.1          4.1          5.1          6.1          7.1          8.1          9.1         10.1
    -20.679199   -20.558196   -11.494804    -1.567142    -1.359962    -0.831794    -0.767664    -0.566420     0.031940     0.063179

         1.2          2.2          3.2          4.2          5.2          6.2          7.2
    -20.679243    -1.511433    -0.774459    -0.736005    -0.570145     0.053838     0.094393

         1.3          2.3          3.3          4.3
     -0.745854    -0.509489     0.069854     0.170139

         1.4          2.4          3.4
     -0.573749     0.155002     0.309935


 **********************************************************************************************************************************
 DATASETS  * FILE   NREC   LENGTH (MB)   RECORD NAMES
              1      18        3.25       500      610      700      900      950      970     1000      129      960     1100   
                                          VAR    BASINP    GEOM    SYMINP    ZMAT    AOBASIS   BASIS     P2S    ABASIS      S 
                                         1400     1410     1200     1210     1080     1600     1650     1700   
                                           T        V       H0       H01     AOSYM     SMH    MOLCAS    OPER   

              2       3        0.68       700     1000     2100   
                                         GEOM     BASIS     RHF  

 PROGRAMS   *        TOTAL        HF       INT
 CPU TIMES  *         6.91      1.19      5.65
 REAL TIME  *         7.79 SEC
 DISK USED  *         1.53 GB      
 SF USED    *         0.06 MB      
 GA USED    *         0.00 MB       (max)       0.00 MB       (current)
 **********************************************************************************************************************************


1PROGRAM * CCSD (Closed-shell coupled cluster)     Authors: C. Hampel, H.-J. Werner, 1991, M. Deegan, P.J. Knowles, 1992

                                  CCSD-F12 implementation by  H.-J. Werner, 2007

                   Density fitting integral evaluation by F.R. Manby, 2003,2007, G. Knizia, 2010

 Basis set CC-PVTZ/JKFIT generated.      Number of basis functions:   376 
 Basis set AUG-CC-PVTZ/MP2FIT generated. Number of basis functions:   516 

 Convergence thresholds:  THRVAR = 1.00D-08  THRDEN = 1.00D-06

 CCSD(T)     terms to be evaluated (factor= 1.000)


 Number of core orbitals:           4 (   3   1   0   0 )
 Number of closed-shell orbitals:  12 (   5   4   2   1 )
 Number of external orbitals:     214 (  76  63  43  32 )

 Molecular orbitals read from record     2100.2  Type=RHF/CANONICAL (state 1.1)

 MP2-F12 correlation treatment (H.-J. Werner, 2006)
 --------------------------------------------------

 Using MP2-F12 with ansatz 3C(FIX)

 Using projected zeroth-order Hamiltonian (+Z)

 FOCKRIB=T FOCKRIC=T FOCKRIP=T CABSP=T CABSA=T CABSK=T CABSF=T GBC=F EBC=F DMAT=T NOFIK=T NOPAO=1 SOLVE=-1  USEPAO=0
 EXCH_A= T EXCH_B= F EXCH_C= F EXCH_P= F
 
 Geminal basis:    OPTFULL  GEM_TYPE=SLATER  BETA=1.0  NGEM=6

 Optimizing Gaussian exponents for each gem_beta

 Geminal optimization for beta= 1.0000
 Weight function:   m=0, omega= 1.4646

 Augmented Hessian optimization of geminal fit. Trust ratio= 0.40000
 Convergence reached after   2 iterations. Final gradient= 8.24D-16, Step= 4.32D-06, Delta= 1.28D-09
 
 Alpha:                 0.19532     0.81920     2.85917     9.50073    35.69989   197.79328
 Coeff:                 0.27070     0.30552     0.18297     0.10986     0.06810     0.04224
 

 Symmetry turned off. Reference energy:       -263.732891321520

 All pairs explicitly correlated. Number of r12-pairs:           78
 
 AO(A)-basis ORBITAL           loaded. Number of functions:     230
 RI(R)-basis CC-PVTZ/JKFIT     loaded. Number of functions:     376
 DF-basis CC-PVTZ/JKFIT        loaded. Number of functions:     376

 Screening thresholds:   THRAO=  1.00D-10  THRMO=  1.00D-09  THRPROD=  1.00D-09
                         THRSW=  1.00D-05  THROV=  1.00D-12  THRF12=   1.00D-08

 CPU time for Fock operators                      0.98 sec
 
 Construction of ABS:
 Smallest eigenvalue of S          2.01E-04  (threshold= 1.00E-08)
 Ratio eigmin/eigmax               1.43E-06  (threshold= 1.00E-09)
 Smallest eigenvalue of S kept     2.01E-04  (threshold= 2.01E-04, 0 functions deleted, 376 kept)
 
 Construction of CABS:
 Smallest eigenvalue of S          2.13E-08  (threshold= 1.00E-08)
 Ratio eigmin/eigmax               2.13E-08  (threshold= 1.00E-09)
 Smallest eigenvalue of S kept     2.13E-08  (threshold= 2.13E-08, 0 functions deleted, 376 kept)
 
 CPU time for CABS singles                        0.16 sec

 CABS-singles contribution of  -0.01595085 patched into reference energy.
 New reference energy        -263.74884217
 
 AO(A)-basis ORBITAL           loaded. Number of functions:     230
 RI(R)-basis CC-PVTZ/JKFIT     loaded. Number of functions:     376
 DF-basis AUG-CC-PVTZ/MP2FIT   loaded. Number of functions:     516

 Screening thresholds:   THRAO=  1.00D-10  THRMO=  1.00D-09  THRPROD=  1.00D-09
                         THRSW=  1.00D-05  THROV=  1.00D-12  THRF12=   1.00D-08

 CPU time for 3-index integral evaluation         3.08 sec
 CPU time for first  half transformation          0.31 sec (10099.0 MFLOP/sec)
 CPU time for second half transformation          0.03 sec ( 3771.3 MFLOP/sec)
 CPU time for sorting                             0.14 sec
 CPU time for fitting                             0.04 sec (34826.3 MFLOP/sec)
 CPU time for tilde quantities                    0.05 sec (36977.6 MFLOP/sec)
 CPU time for assembly                            0.76 sec (30988.0 MFLOP/sec)
 CPU time for tranop_f12                          0.82 sec (36245.8 MFLOP/sec)
 CPU time for f12 integrals (total)               7.24 sec
 F12-matrices built in  3 passes.
 F12-matrices built in  3 passes.
 F12-matrices built in  3 passes.
 F12-matrices built in  3 passes.
 FC-matrix built in  3 passes.
 CPU time for f12 matrices (total)                0.48 sec

 Diagonal F12 approximation with fixed coefficients:  TSING= 0.500,  TTRIP= 0.250 (scaled by -1/beta)

 DF-MP2-F12 energy corrections:
 ------------------------------
 Approx.                                    Singlet             Triplet             Total
 DF-MP2-F12/3*C(DX,FIX)                -0.097324147268     -0.017162750854     -0.114486898122
 DF-MP2-F12/3*C(FIX)                   -0.079674164940     -0.013636388289     -0.093310553229
 DF-MP2-F12/3C(FIX)                    -0.080071439457     -0.013702826822     -0.093774266279

 DF-MP2-F12 correlation energies:
 --------------------------------
 Approx.                                    Singlet             Triplet             Ecorr            Total Energy
 DF-MP2                                -0.540292418441     -0.351311596315     -0.891604014756   -264.640446183121
 DF-MP2-F12/3*C(DX,FIX)                -0.637616565710     -0.368474347169     -1.006090912878   -264.754933081243
 DF-MP2-F12/3*C(FIX)                   -0.619966583381     -0.364947984604     -0.984914567985   -264.733756736349
 DF-MP2-F12/3C(FIX)                    -0.620363857899     -0.365014423137     -0.985378281035   -264.734220449400

 SCS-DF-MP2 energies (F_SING= 1.20000  F_TRIP= 0.62222  F_PARALLEL= 0.33333):
 ----------------------------------------------------------------------------
 SCS-DF-MP2                            -0.866944784281   -264.615786952645
 SCS-DF-MP2-F12/3*C(DX,FIX)            -0.994412805979   -264.743254974343
 SCS-DF-MP2-F12/3*C(FIX)               -0.971038646033   -264.719880814397
 SCS-DF-MP2-F12/3C(FIX)                -0.971556714986   -264.720398883350

 Symmetry restored.
 Symmetry transformation completed.

 Number of N-1 electron functions:              12
 Number of N-2 electron functions:              78
 Number of singly external CSFs:               750
 Number of doubly external CSFs:            844332
 Total number of CSFs:                      845083

 Pair and operator lists are different

 Length of J-op  integral file:             462.28 MB
 Length of K-op  integral file:             502.25 MB
 Length of 3-ext integral record:             0.00 MB

 Memory could be reduced to 38.71 Mwords without degradation in triples

 Integral transformation finished. Total CPU:   1.34 sec, npass=  1  Memory used:   7.09 MW

 Reference energy:                   -263.74884217

 Adding F12 terms to K(Cij), methodcc=6,  factor=1.0

 ITER.      SQ.NORM     CORR.ENERGY   TOTAL ENERGY   ENERGY CHANGE        DEN1      VAR(S)    VAR(P)  DIIS     TIME
   1      1.20259411    -0.87214816  -264.62099033     0.01945803     0.04861733  0.76D-02  0.56D-02  1  1    11.44
   2      1.21702105    -0.86772872  -264.61657089     0.00441944    -0.02053840  0.94D-04  0.58D-03  2  2    12.34
   3      1.22237615    -0.86781582  -264.61665798    -0.00008709    -0.00225972  0.14D-03  0.31D-04  3  3    13.28
   4      1.22522987    -0.86765833  -264.61650050     0.00015748    -0.00141625  0.88D-05  0.40D-05  4  4    14.20
   5      1.22629889    -0.86761805  -264.61646022     0.00004028    -0.00037330  0.86D-06  0.29D-06  5  5    15.12
   6      1.22647183    -0.86759126  -264.61643343     0.00002679    -0.00000702  0.72D-07  0.39D-07  6  6    16.05
   7      1.22651089    -0.86758769  -264.61642985     0.00000357    -0.00000672  0.17D-07  0.55D-08  6  2    16.99
   8      1.22651459    -0.86758732  -264.61642949     0.00000037     0.00000145  0.17D-08  0.92D-09  6  1    17.93
   9      1.22651492    -0.86758757  -264.61642974    -0.00000026     0.00000142  0.31D-09  0.10D-09  6  4    18.85

 Norm of t1 vector:      0.10898128      S-energy:     0.00000013      T1 diagnostic:  0.01573009
                                                                       D1 diagnostic:  0.04695800

 Adding energy correction from Wij-K(Fij), methodcc=6  factor=1.0
 
  CCSD correlation energy              -0.867587573623
  MP2-F12 correction (uncoupled)       -0.092532732289
  C*T doubles correction               -0.001521534378
  f12b correction                       0.015427983940


 Total CPU time for triples:     24.92 sec


 RESULTS
 =======

  Reference energy                   -263.732891321520
  F12 singles correction               -0.015950846844

 F12 singles corrections added to reference energy

  New reference energy               -263.748842168365

  F12a singlet correction              -0.080259471539
  F12a triplet correction              -0.013794795128
  F12a total correction                -0.094054266667

 F12a corrections for ansatz F12/3C(FIX) added to CCSD energy
 
  CCSD-F12a singlet pair energy        -0.642705634969
  CCSD-F12a triplet pair energy        -0.318936337971
  CCSD-F12a correlation energy         -0.961641840290

  Triples (T) contribution             -0.039371959552
  Total correlation energy             -1.001013799842

  CCSD-F12a total energy             -264.710484008655
  CCSD[T]-F12a energy                -264.752520621860
  CCSD-T-F12a energy                 -264.748891202997
 !CCSD(T)-F12a total energy          -264.749855968206

 F12b corrections for ansatz F12/3C(FIX) added to CCSD(T)-F12a energy

  CCSD-F12b singlet pair energy        -0.628531062851
  CCSD-F12b triplet pair energy        -0.317682926149
  CCSD-F12b correlation energy         -0.946213856351

  Triples (T) contribution             -0.039371959552
  Total correlation energy             -0.985585815902

  CCSD-F12b total energy             -264.695056024715
  CCSD[T]-F12b energy                -264.737092637921
  CCSD-T-F12b energy                 -264.733463219057
 !CCSD(T)-F12b total energy          -264.734427984267

 Timing summary (sec):

 STEP                 CPU(USER)    SYS     CPU(TOT)    WALL
 Transformation          1.34      0.23      1.57      1.57
 CCSD iterations         8.27      0.78      9.05      9.04
 Triples                24.92      0.72     25.64     25.64
 MP2-F12                 9.25      1.15     10.40     10.41
 F12b energy             0.55      0.03      0.58      0.58

 Program statistics:

 Available memory in ccsd:                99998934
 Min. memory needed in ccsd:               2252999
 Max. memory used in ccsd:                 3011949
 Max. memory used in cckext:               2777209 (10 integral passes)



 **********************************************************************************************************************************
 DATASETS  * FILE   NREC   LENGTH (MB)   RECORD NAMES
              1      20      137.17       500      610      700      900      950      970     1000      129      960     1100   
                                          VAR    BASINP    GEOM    SYMINP    ZMAT    AOBASIS   BASIS     P2S    ABASIS      S 
                                         1400     1410     1200     1210     1080     1600     1650     1700      960(1)  1380   
                                           T        V       H0       H01     AOSYM     SMH    MOLCAS    OPER    ABASIS    JKOP   

              2       5        0.98       700     1000     2100     7360     7350   
                                         GEOM     BASIS     RHF    F12ABS    EF12   

 PROGRAMS   *        TOTAL   CCSD(T)        HF       INT
 CPU TIMES  *        51.26     44.35      1.19      5.65
 REAL TIME  *        55.34 SEC
 DISK USED  *         1.75 GB      
 SF USED    *         1.34 GB      
 GA USED    *         2.40 MB       (max)       0.00 MB       (current)
 **********************************************************************************************************************************

     CCSD(T)-F12        HF-SCF  
   -264.73442798   -263.73289132
 **********************************************************************************************************************************
 Variable memory released
