
 Primary working directories    : /scratch/kee
 Secondary working directories  : /scratch/kee
 Wavefunction directory         : /home/kee/wfu/
 Main file repository           : /scratch/kee/

 ARCHNAME  : Linux/x86_64
 FC        : /opt/intel/composer_xe_2015.0.090/bin/intel64/ifort
 FCVERSION : 15.0.0
 BLASLIB   : -L/opt/intel/mkl/lib/intel64 -lmkl_intel_ilp64 -lmkl_sequential -lmkl_core
 id        : emory

 Nodes     nprocs
 node22       3
 Number of processes for MPI-2 version of Molpro:   nprocs(total)=    4   nprocs(compute)=    3   nprocs(helper)=    1
 ga_uses_ma=false, calling ma_init with nominal heap.
 GA-space will be limited to   8.0 MW (determined by -G option)

 Using customized tuning parameters: mindgm=7; mindgv=32; mindgc=1; mindgr=1; noblas=0; mincuda=1000; minvec=7
 default implementation of scratch files=sf  

 ***,co2h2o
 memory,100,m
 basis avtz
 geomtype = xyz
 geometry = {
 6
       0.00000000
 O     0.01288800    1.16233300    0.00000000
 O     0.01288800   -1.16233300    0.00000000
 O     2.20363900    0.00000000    0.00000000
 H     1.62249900    0.76306800    0.00000000
 H     1.62249900   -0.76306800    0.00000000
 C     0.00363900    0.00000000    0.00000000
 }
 hf
 ccsd(t)-f12
 ---

 Variables initialized (665), CPU time= 0.01 sec
 Commands  initialized (462), CPU time= 0.01 sec, 486 directives.
 Default parameters read. Elapsed time= 0.04 sec

 Checking input...
 Passed
1


                                         ***  PROGRAM SYSTEM MOLPRO  ***
                         Copyright, University College Cardiff Consultants Limited, 2008

                                    Version 2010.1 linked 9 Dec 2014 15:06:28 


 **********************************************************************************************************************************
 LABEL *   co2h2o                                                                        
 Linux-2.6.32-504.el6.x86_64/node22(x86_64) 64 bit mpp version                           DATE: 15-Dec-16          TIME: 00:14:06  
 **********************************************************************************************************************************

 Patch level:      19
 **********************************************************************************************************************************

 Variable memory set to  100000000 words,  buffer space   230000 words

 SETTING BASIS          =    AVTZ
 SETTING GEOMTYPE       =    XYZ

Geometry recognized as XYZ



 Recomputing integrals since basis changed


 Using spherical harmonics

 Library entry O      S aug-cc-pVTZ          selected for orbital group  1
 Library entry O      P aug-cc-pVTZ          selected for orbital group  1
 Library entry O      D aug-cc-pVTZ          selected for orbital group  1
 Library entry O      F aug-cc-pVTZ          selected for orbital group  1
 Library entry H      S aug-cc-pVTZ          selected for orbital group  2
 Library entry H      P aug-cc-pVTZ          selected for orbital group  2
 Library entry H      D aug-cc-pVTZ          selected for orbital group  2
 Library entry C      S aug-cc-pVTZ          selected for orbital group  3
 Library entry C      P aug-cc-pVTZ          selected for orbital group  3
 Library entry C      D aug-cc-pVTZ          selected for orbital group  3
 Library entry C      F aug-cc-pVTZ          selected for orbital group  3

1PROGRAM * SEWARD (Integral evaluation for generally contracted gaussian basis sets)     Author: Roland Lindh, 1990

 Geometry written to block  1 of record 700


 Point group  C2v 



 ATOMIC COORDINATES

 NR  ATOM    CHARGE       X              Y              Z

   1  O       8.00    0.024354790    2.196491044    0.000000000
   2  O       8.00    0.024354790   -2.196491044    0.000000000
   3  O       8.00    4.164274203    0.000000000    0.000000000
   4  H       1.00    3.066078759    1.441989540    0.000000000
   5  H       1.00    3.066078759   -1.441989540    0.000000000
   6  C       6.00    0.006876713    0.000000000    0.000000000

 Bond lengths in Bohr (Angstrom)

 1-6  2.196560581  2-6  2.196560581  3-4  1.812558155  3-5  1.812558155
     (1.162369798)     (1.162369798)     (0.959164466)     (0.959164466)

 Bond angles

  1-6-2  179.08818302   4-3-5  105.41539946

 NUCLEAR CHARGE:                   32
 NUMBER OF PRIMITIVE AOS:         322
 NUMBER OF SYMMETRY AOS:          282
 NUMBER OF CONTRACTIONS:          230   (  84A1  +  68B1  +  45B2  +  33A2  )
 NUMBER OF CORE ORBITALS:           4   (   3A1  +   1B1  +   0B2  +   0A2  )
 NUMBER OF VALENCE ORBITALS:       18   (   8A1  +   6B1  +   3B2  +   1A2  )


 NUCLEAR REPULSION ENERGY  118.33289485


 Eigenvalues of metric

         1 0.117E-03 0.199E-03 0.322E-03 0.708E-03 0.786E-03 0.136E-02 0.180E-02 0.270E-02
         2 0.162E-03 0.263E-03 0.549E-03 0.603E-03 0.985E-03 0.157E-02 0.210E-02 0.325E-02
         3 0.296E-02 0.359E-02 0.127E-01 0.159E-01 0.258E-01 0.304E-01 0.369E-01 0.402E-01
         4 0.333E-02 0.859E-02 0.225E-01 0.289E-01 0.295E-01 0.497E-01 0.597E-01 0.986E-01


 Contracted 2-electron integrals neglected if value below      1.0D-11
 AO integral compression algorithm  1   Integral accuracy      1.0D-11

     468.189 MB (compressed) written to integral file ( 52.2%)

     Node minimum: 152.306 MB, node maximum: 163.578 MB


 NUMBER OF SORTED TWO-ELECTRON INTEGRALS:   30156294.     BUFFER LENGTH:  32768
 NUMBER OF SEGMENTS:   2  SEGMENT LENGTH:   15999663      RECORD LENGTH: 524288

 Memory used in sort:      16.56 MW

 SORT1 READ   112167128. AND WROTE    29566248. INTEGRALS IN     85 RECORDS. CPU TIME:     2.40 SEC, REAL TIME:     2.76 SEC
 SORT2 READ    88740225. AND WROTE    90461370. INTEGRALS IN   1872 RECORDS. CPU TIME:     0.61 SEC, REAL TIME:     0.88 SEC

 Node minimum:    30151286.  Node maximum:    30156294. integrals

 OPERATOR DM      FOR CENTER  0  COORDINATES:    0.000000    0.000000    0.000000


 **********************************************************************************************************************************
 DATASETS  * FILE   NREC   LENGTH (MB)   RECORD NAMES
              1      18        3.24       500      610      700      900      950      970     1000      129      960     1100   
                                          VAR    BASINP    GEOM    SYMINP    ZMAT    AOBASIS   BASIS     P2S    ABASIS      S 
                                         1400     1410     1200     1210     1080     1600     1650     1700   
                                           T        V       H0       H01     AOSYM     SMH    MOLCAS    OPER   

 PROGRAMS   *        TOTAL       INT
 CPU TIMES  *         5.69      5.62
 REAL TIME  *         6.43 SEC
 DISK USED  *         1.51 GB      
 GA USED    *         0.00 MB       (max)       0.00 MB       (current)
 **********************************************************************************************************************************

1PROGRAM * RHF-SCF (CLOSED SHELL)       Authors: W. Meyer, H.-J. Werner


 NUMBER OF ELECTRONS:      16+   16-
 CONVERGENCE THRESHOLDS:    1.00E-05 (Density)    1.00E-07 (Energy)
 MAX. NUMBER OF ITERATIONS:       60
 INTERPOLATION TYPE:            DIIS
 INTERPOLATION STEPS:              2 (START)      1 (STEP)
 LEVEL SHIFTS:                  0.00 (CLOSED)  0.00 (OPEN) 



 Orbital guess generated from atomic densities. Full valence occupancy:   11   7   3   1

 Molecular orbital dump at record        2100.2

 Initial alpha occupancy:   8   5   2   1
 Initial beta  occupancy:   8   5   2   1
 Wave function symmetry:    1

 ITERATION    DDIFF          GRAD             ENERGY        2-EL.EN.            DIPOLE MOMENTS         DIIS
    1      0.000D+00      0.000D+00      -263.58658757    428.929280   -1.44540    0.00000    0.00000    0
    2      0.000D+00      0.926D-02      -263.66276811    426.774459   -0.82058    0.00000    0.00000    1
    3      0.147D-01      0.607D-02      -263.70780437    428.460233   -0.97186    0.00000    0.00000    2
    4      0.587D-02      0.630D-03      -263.70847439    428.194510   -0.96631    0.00000    0.00000    3
    5      0.841D-03      0.217D-03      -263.70856385    428.229509   -0.95648    0.00000    0.00000    4
    6      0.295D-03      0.738D-04      -263.70857431    428.248874   -0.95638    0.00000    0.00000    5
    7      0.101D-03      0.199D-04      -263.70857546    428.240229   -0.95560    0.00000    0.00000    6
    8      0.350D-04      0.382D-05      -263.70857552    428.241529   -0.95560    0.00000    0.00000    7
    9      0.835D-05      0.117D-05      -263.70857552    428.241438   -0.95557    0.00000    0.00000    0

 Final occupancy:   8   5   2   1

 !RHF STATE 1.1 Energy               -263.708575524615
 Nuclear energy                       118.33289485
 One-electron energy                 -596.16218954
 Two-electron energy                  214.12071916
 Virial quotient                       -1.00032953
 !RHF STATE 1.1 Dipole moment          -0.95557142     0.00000000     0.00000000
 Dipole moment /Debye                  -2.42866121     0.00000000     0.00000000

 Orbital energies:

         1.1          2.1          3.1          4.1          5.1          6.1          7.1          8.1          9.1         10.1
    -20.680111   -20.550017   -11.501154    -1.575888    -1.360359    -0.836087    -0.778864    -0.554404     0.031359     0.063992

         1.2          2.2          3.2          4.2          5.2          6.2          7.2
    -20.680154    -1.517705    -0.778812    -0.745194    -0.567657     0.053651     0.095370

         1.3          2.3          3.3          4.3
     -0.750777    -0.506100     0.069640     0.168281

         1.4          2.4          3.4
     -0.577093     0.154825     0.314328


 **********************************************************************************************************************************
 DATASETS  * FILE   NREC   LENGTH (MB)   RECORD NAMES
              1      18        3.25       500      610      700      900      950      970     1000      129      960     1100   
                                          VAR    BASINP    GEOM    SYMINP    ZMAT    AOBASIS   BASIS     P2S    ABASIS      S 
                                         1400     1410     1200     1210     1080     1600     1650     1700   
                                           T        V       H0       H01     AOSYM     SMH    MOLCAS    OPER   

              2       3        0.68       700     1000     2100   
                                         GEOM     BASIS     RHF  

 PROGRAMS   *        TOTAL        HF       INT
 CPU TIMES  *         6.87      1.18      5.62
 REAL TIME  *         7.76 SEC
 DISK USED  *         1.53 GB      
 SF USED    *         0.06 MB      
 GA USED    *         0.00 MB       (max)       0.00 MB       (current)
 **********************************************************************************************************************************


1PROGRAM * CCSD (Closed-shell coupled cluster)     Authors: C. Hampel, H.-J. Werner, 1991, M. Deegan, P.J. Knowles, 1992

                                  CCSD-F12 implementation by  H.-J. Werner, 2007

                   Density fitting integral evaluation by F.R. Manby, 2003,2007, G. Knizia, 2010

 Basis set CC-PVTZ/JKFIT generated.      Number of basis functions:   376 
 Basis set AUG-CC-PVTZ/MP2FIT generated. Number of basis functions:   516 

 Convergence thresholds:  THRVAR = 1.00D-08  THRDEN = 1.00D-06

 CCSD(T)     terms to be evaluated (factor= 1.000)


 Number of core orbitals:           4 (   3   1   0   0 )
 Number of closed-shell orbitals:  12 (   5   4   2   1 )
 Number of external orbitals:     214 (  76  63  43  32 )

 Molecular orbitals read from record     2100.2  Type=RHF/CANONICAL (state 1.1)

 MP2-F12 correlation treatment (H.-J. Werner, 2006)
 --------------------------------------------------

 Using MP2-F12 with ansatz 3C(FIX)

 Using projected zeroth-order Hamiltonian (+Z)

 FOCKRIB=T FOCKRIC=T FOCKRIP=T CABSP=T CABSA=T CABSK=T CABSF=T GBC=F EBC=F DMAT=T NOFIK=T NOPAO=1 SOLVE=-1  USEPAO=0
 EXCH_A= T EXCH_B= F EXCH_C= F EXCH_P= F
 
 Geminal basis:    OPTFULL  GEM_TYPE=SLATER  BETA=1.0  NGEM=6

 Optimizing Gaussian exponents for each gem_beta

 Geminal optimization for beta= 1.0000
 Weight function:   m=0, omega= 1.4646

 Augmented Hessian optimization of geminal fit. Trust ratio= 0.40000
 Convergence reached after   2 iterations. Final gradient= 8.24D-16, Step= 4.32D-06, Delta= 1.28D-09
 
 Alpha:                 0.19532     0.81920     2.85917     9.50073    35.69989   197.79328
 Coeff:                 0.27070     0.30552     0.18297     0.10986     0.06810     0.04224
 

 Symmetry turned off. Reference energy:       -263.708575524615

 All pairs explicitly correlated. Number of r12-pairs:           78
 
 AO(A)-basis ORBITAL           loaded. Number of functions:     230
 RI(R)-basis CC-PVTZ/JKFIT     loaded. Number of functions:     376
 DF-basis CC-PVTZ/JKFIT        loaded. Number of functions:     376

 Screening thresholds:   THRAO=  1.00D-10  THRMO=  1.00D-09  THRPROD=  1.00D-09
                         THRSW=  1.00D-05  THROV=  1.00D-12  THRF12=   1.00D-08

 CPU time for Fock operators                      0.96 sec
 
 Construction of ABS:
 Smallest eigenvalue of S          1.93E-04  (threshold= 1.00E-08)
 Ratio eigmin/eigmax               1.37E-06  (threshold= 1.00E-09)
 Smallest eigenvalue of S kept     1.93E-04  (threshold= 1.93E-04, 0 functions deleted, 376 kept)
 
 Construction of CABS:
 Smallest eigenvalue of S          2.08E-08  (threshold= 1.00E-08)
 Ratio eigmin/eigmax               2.08E-08  (threshold= 1.00E-09)
 Smallest eigenvalue of S kept     2.08E-08  (threshold= 2.08E-08, 0 functions deleted, 376 kept)
 
 CPU time for CABS singles                        0.16 sec

 CABS-singles contribution of  -0.01595048 patched into reference energy.
 New reference energy        -263.72452601
 
 AO(A)-basis ORBITAL           loaded. Number of functions:     230
 RI(R)-basis CC-PVTZ/JKFIT     loaded. Number of functions:     376
 DF-basis AUG-CC-PVTZ/MP2FIT   loaded. Number of functions:     516

 Screening thresholds:   THRAO=  1.00D-10  THRMO=  1.00D-09  THRPROD=  1.00D-09
                         THRSW=  1.00D-05  THROV=  1.00D-12  THRF12=   1.00D-08

 CPU time for 3-index integral evaluation         3.05 sec
 CPU time for first  half transformation          0.30 sec ( 9591.1 MFLOP/sec)
 CPU time for second half transformation          0.02 sec ( 5617.2 MFLOP/sec)
 CPU time for sorting                             0.14 sec
 CPU time for fitting                             0.03 sec (46435.0 MFLOP/sec)
 CPU time for tilde quantities                    0.04 sec (46222.0 MFLOP/sec)
 CPU time for assembly                            0.76 sec (31089.2 MFLOP/sec)
 CPU time for tranop_f12                          0.86 sec (34786.8 MFLOP/sec)
 CPU time for f12 integrals (total)               7.22 sec
 F12-matrices built in  3 passes.
 F12-matrices built in  3 passes.
 F12-matrices built in  3 passes.
 F12-matrices built in  3 passes.
 FC-matrix built in  3 passes.
 CPU time for f12 matrices (total)                0.45 sec

 Diagonal F12 approximation with fixed coefficients:  TSING= 0.500,  TTRIP= 0.250 (scaled by -1/beta)

 DF-MP2-F12 energy corrections:
 ------------------------------
 Approx.                                    Singlet             Triplet             Total
 DF-MP2-F12/3*C(DX,FIX)                -0.097451665860     -0.017260429895     -0.114712095754
 DF-MP2-F12/3*C(FIX)                   -0.079740958751     -0.013712906477     -0.093453865227
 DF-MP2-F12/3C(FIX)                    -0.080162225862     -0.013793428841     -0.093955654703

 DF-MP2-F12 correlation energies:
 --------------------------------
 Approx.                                    Singlet             Triplet             Ecorr            Total Energy
 DF-MP2                                -0.540665827671     -0.353733337747     -0.894399165418   -264.618925172792
 DF-MP2-F12/3*C(DX,FIX)                -0.638117493531     -0.370993767642     -1.009111261173   -264.733637268546
 DF-MP2-F12/3*C(FIX)                   -0.620406786422     -0.367446244224     -0.987853030646   -264.712379038019
 DF-MP2-F12/3C(FIX)                    -0.620828053533     -0.367526766589     -0.988354820122   -264.712880827495

 SCS-DF-MP2 energies (F_SING= 1.20000  F_TRIP= 0.62222  F_PARALLEL= 0.33333):
 ----------------------------------------------------------------------------
 SCS-DF-MP2                            -0.868899736693   -264.593425744066
 SCS-DF-MP2-F12/3*C(DX,FIX)            -0.996581558770   -264.721107566143
 SCS-DF-MP2-F12/3*C(FIX)               -0.973121362335   -264.697647369708
 SCS-DF-MP2-F12/3C(FIX)                -0.973676985673   -264.698202993046

 Symmetry restored.
 Symmetry transformation completed.

 Number of N-1 electron functions:              12
 Number of N-2 electron functions:              78
 Number of singly external CSFs:               750
 Number of doubly external CSFs:            844332
 Total number of CSFs:                      845083

 Pair and operator lists are different

 Length of J-op  integral file:             462.28 MB
 Length of K-op  integral file:             502.25 MB
 Length of 3-ext integral record:             0.00 MB

 Memory could be reduced to 38.71 Mwords without degradation in triples

 Integral transformation finished. Total CPU:   1.36 sec, npass=  1  Memory used:   7.09 MW

 Reference energy:                   -263.72452601

 Adding F12 terms to K(Cij), methodcc=6,  factor=1.0

 ITER.      SQ.NORM     CORR.ENERGY   TOTAL ENERGY   ENERGY CHANGE        DEN1      VAR(S)    VAR(P)  DIIS     TIME
   1      1.20212230    -0.87444160  -264.59896761     0.01995752     0.04917314  0.77D-02  0.56D-02  1  1    11.43
   2      1.21649225    -0.86996221  -264.59448822     0.00447939    -0.02056620  0.96D-04  0.58D-03  2  2    12.35
   3      1.22182285    -0.87004680  -264.59457281    -0.00008459    -0.00221902  0.14D-03  0.30D-04  3  3    13.29
   4      1.22468783    -0.86988201  -264.59440802     0.00016479    -0.00141291  0.93D-05  0.40D-05  4  4    14.22
   5      1.22577438    -0.86984135  -264.59436736     0.00004066    -0.00037581  0.10D-05  0.30D-06  5  5    15.15
   6      1.22595433    -0.86981457  -264.59434057     0.00002679    -0.00000648  0.10D-06  0.48D-07  6  6    16.09
   7      1.22599928    -0.86981067  -264.59433668     0.00000389    -0.00000699  0.29D-07  0.67D-08  6  2    17.03
   8      1.22600483    -0.86981028  -264.59433628     0.00000039     0.00000137  0.31D-08  0.14D-08  6  1    17.98
   9      1.22600554    -0.86981064  -264.59433664    -0.00000036     0.00000168  0.54D-09  0.17D-09  6  4    18.91

 Norm of t1 vector:      0.10978959      S-energy:     0.00000014      T1 diagnostic:  0.01584676
                                                                       D1 diagnostic:  0.04790656

 Adding energy correction from Wij-K(Fij), methodcc=6  factor=1.0
 
  CCSD correlation energy              -0.869810637295
  MP2-F12 correction (uncoupled)       -0.092638236797
  C*T doubles correction               -0.001568991865
  f12b correction                       0.015429677481


 Total CPU time for triples:     26.17 sec


 RESULTS
 =======

  Reference energy                   -263.708575524616
  F12 singles correction               -0.015950482758

 F12 singles corrections added to reference energy

  New reference energy               -263.724526007373

  F12a singlet correction              -0.080331104761
  F12a triplet correction              -0.013876123901
  F12a total correction                -0.094207228662

 F12a corrections for ansatz F12/3C(FIX) added to CCSD energy
 
  CCSD-F12a singlet pair energy        -0.642588936743
  CCSD-F12a triplet pair energy        -0.321429072917
  CCSD-F12a correlation energy         -0.964017865956

  Triples (T) contribution             -0.039734712182
  Total correlation energy             -1.003752578138

  CCSD-F12a total energy             -264.688543873330
  CCSD[T]-F12a energy                -264.730971661620
  CCSD-T-F12a energy                 -264.727309699333
 !CCSD(T)-F12a total energy          -264.728278585512

 F12b corrections for ansatz F12/3C(FIX) added to CCSD(T)-F12a energy

  CCSD-F12b singlet pair energy        -0.628422036930
  CCSD-F12b triplet pair energy        -0.320166295249
  CCSD-F12b correlation energy         -0.948588188476

  Triples (T) contribution             -0.039734712182
  Total correlation energy             -0.988322900658

  CCSD-F12b total energy             -264.673114195849
  CCSD[T]-F12b energy                -264.715541984139
  CCSD-T-F12b energy                 -264.711880021853
 !CCSD(T)-F12b total energy          -264.712848908031

 Timing summary (sec):

 STEP                 CPU(USER)    SYS     CPU(TOT)    WALL
 Transformation          1.37      0.25      1.62      1.61
 CCSD iterations         8.39      0.75      9.14      9.16
 Triples                26.17      0.74     26.91     26.89
 MP2-F12                 9.16      1.13     10.29     10.29
 F12b energy             0.57      0.02      0.59      0.59

 Program statistics:

 Available memory in ccsd:                99998934
 Min. memory needed in ccsd:               2252999
 Max. memory used in ccsd:                 3011949
 Max. memory used in cckext:               2777209 (10 integral passes)



 **********************************************************************************************************************************
 DATASETS  * FILE   NREC   LENGTH (MB)   RECORD NAMES
              1      20      137.17       500      610      700      900      950      970     1000      129      960     1100   
                                          VAR    BASINP    GEOM    SYMINP    ZMAT    AOBASIS   BASIS     P2S    ABASIS      S 
                                         1400     1410     1200     1210     1080     1600     1650     1700      960(1)  1380   
                                           T        V       H0       H01     AOSYM     SMH    MOLCAS    OPER    ABASIS    JKOP   

              2       5        0.98       700     1000     2100     7360     7350   
                                         GEOM     BASIS     RHF    F12ABS    EF12   

 PROGRAMS   *        TOTAL   CCSD(T)        HF       INT
 CPU TIMES  *        52.55     45.67      1.18      5.62
 REAL TIME  *        56.58 SEC
 DISK USED  *         1.75 GB      
 SF USED    *         1.34 GB      
 GA USED    *         2.40 MB       (max)       0.00 MB       (current)
 **********************************************************************************************************************************

     CCSD(T)-F12        HF-SCF  
   -264.71284891   -263.70857552
 **********************************************************************************************************************************
 Variable memory released
