
 Primary working directories    : /scratch/kee
 Secondary working directories  : /scratch/kee
 Wavefunction directory         : /home/kee/wfu/
 Main file repository           : /scratch/kee/

 ARCHNAME  : Linux/x86_64
 FC        : /opt/intel/composer_xe_2015.0.090/bin/intel64/ifort
 FCVERSION : 15.0.0
 BLASLIB   : -L/opt/intel/mkl/lib/intel64 -lmkl_intel_ilp64 -lmkl_sequential -lmkl_core
 id        : emory

 Nodes     nprocs
 node22       3
 Number of processes for MPI-2 version of Molpro:   nprocs(total)=    4   nprocs(compute)=    3   nprocs(helper)=    1
 ga_uses_ma=false, calling ma_init with nominal heap.
 GA-space will be limited to   8.0 MW (determined by -G option)

 Using customized tuning parameters: mindgm=7; mindgv=32; mindgc=1; mindgr=1; noblas=0; mincuda=1000; minvec=7
 default implementation of scratch files=sf  

 ***,co2h2o
 memory,100,m
 basis avtz
 geomtype = xyz
 geometry = {
 6
       0.00000000
 O     0.01288800    1.16233300    0.00000000
 O     0.01288800   -1.16233300    0.00000000
 O     2.00363900    0.00000000    0.00000000
 H     1.42249900    0.76306800    0.00000000
 H     1.42249900   -0.76306800    0.00000000
 C     0.00363900    0.00000000    0.00000000
 }
 hf
 ccsd(t)-f12
 ---

 Variables initialized (665), CPU time= 0.01 sec
 Commands  initialized (462), CPU time= 0.00 sec, 486 directives.
 Default parameters read. Elapsed time= 0.04 sec

 Checking input...
 Passed
1


                                         ***  PROGRAM SYSTEM MOLPRO  ***
                         Copyright, University College Cardiff Consultants Limited, 2008

                                    Version 2010.1 linked 9 Dec 2014 15:06:28 


 **********************************************************************************************************************************
 LABEL *   co2h2o                                                                        
 Linux-2.6.32-504.el6.x86_64/node22(x86_64) 64 bit mpp version                           DATE: 15-Dec-16          TIME: 00:10:09  
 **********************************************************************************************************************************

 Patch level:      19
 **********************************************************************************************************************************

 Variable memory set to  100000000 words,  buffer space   230000 words

 SETTING BASIS          =    AVTZ
 SETTING GEOMTYPE       =    XYZ

Geometry recognized as XYZ



 Recomputing integrals since basis changed


 Using spherical harmonics

 Library entry O      S aug-cc-pVTZ          selected for orbital group  1
 Library entry O      P aug-cc-pVTZ          selected for orbital group  1
 Library entry O      D aug-cc-pVTZ          selected for orbital group  1
 Library entry O      F aug-cc-pVTZ          selected for orbital group  1
 Library entry H      S aug-cc-pVTZ          selected for orbital group  2
 Library entry H      P aug-cc-pVTZ          selected for orbital group  2
 Library entry H      D aug-cc-pVTZ          selected for orbital group  2
 Library entry C      S aug-cc-pVTZ          selected for orbital group  3
 Library entry C      P aug-cc-pVTZ          selected for orbital group  3
 Library entry C      D aug-cc-pVTZ          selected for orbital group  3
 Library entry C      F aug-cc-pVTZ          selected for orbital group  3

1PROGRAM * SEWARD (Integral evaluation for generally contracted gaussian basis sets)     Author: Roland Lindh, 1990

 Geometry written to block  1 of record 700


 Point group  C2v 



 ATOMIC COORDINATES

 NR  ATOM    CHARGE       X              Y              Z

   1  O       8.00    0.024354790    2.196491044    0.000000000
   2  O       8.00    0.024354790   -2.196491044    0.000000000
   3  O       8.00    3.786328976    0.000000000    0.000000000
   4  H       1.00    2.688133532    1.441989540    0.000000000
   5  H       1.00    2.688133532   -1.441989540    0.000000000
   6  C       6.00    0.006876713    0.000000000    0.000000000

 Bond lengths in Bohr (Angstrom)

 1-6  2.196560581  2-6  2.196560581  3-4  1.812558155  3-5  1.812558155
     (1.162369798)     (1.162369798)     (0.959164466)     (0.959164466)

 Bond angles

  1-6-2  179.08818302   4-3-5  105.41539946

 NUCLEAR CHARGE:                   32
 NUMBER OF PRIMITIVE AOS:         322
 NUMBER OF SYMMETRY AOS:          282
 NUMBER OF CONTRACTIONS:          230   (  84A1  +  68B1  +  45B2  +  33A2  )
 NUMBER OF CORE ORBITALS:           4   (   3A1  +   1B1  +   0B2  +   0A2  )
 NUMBER OF VALENCE ORBITALS:       18   (   8A1  +   6B1  +   3B2  +   1A2  )


 NUCLEAR REPULSION ENERGY  122.79964344


 Eigenvalues of metric

         1 0.828E-04 0.161E-03 0.268E-03 0.543E-03 0.727E-03 0.119E-02 0.147E-02 0.240E-02
         2 0.113E-03 0.244E-03 0.464E-03 0.534E-03 0.873E-03 0.131E-02 0.188E-02 0.214E-02
         3 0.281E-02 0.325E-02 0.109E-01 0.124E-01 0.210E-01 0.296E-01 0.323E-01 0.361E-01
         4 0.314E-02 0.751E-02 0.167E-01 0.205E-01 0.294E-01 0.468E-01 0.568E-01 0.839E-01


 Contracted 2-electron integrals neglected if value below      1.0D-11
 AO integral compression algorithm  1   Integral accuracy      1.0D-11

     473.956 MB (compressed) written to integral file ( 52.8%)

     Node minimum: 149.160 MB, node maximum: 164.889 MB


 NUMBER OF SORTED TWO-ELECTRON INTEGRALS:   30156294.     BUFFER LENGTH:  32768
 NUMBER OF SEGMENTS:   2  SEGMENT LENGTH:   15999663      RECORD LENGTH: 524288

 Memory used in sort:      16.56 MW

 SORT1 READ   112167128. AND WROTE    29640636. INTEGRALS IN     85 RECORDS. CPU TIME:     2.48 SEC, REAL TIME:     2.83 SEC
 SORT2 READ    88967104. AND WROTE    90461370. INTEGRALS IN   1830 RECORDS. CPU TIME:     0.58 SEC, REAL TIME:     0.88 SEC

 Node minimum:    30151286.  Node maximum:    30156294. integrals

 OPERATOR DM      FOR CENTER  0  COORDINATES:    0.000000    0.000000    0.000000


 **********************************************************************************************************************************
 DATASETS  * FILE   NREC   LENGTH (MB)   RECORD NAMES
              1      18        3.24       500      610      700      900      950      970     1000      129      960     1100   
                                          VAR    BASINP    GEOM    SYMINP    ZMAT    AOBASIS   BASIS     P2S    ABASIS      S 
                                         1400     1410     1200     1210     1080     1600     1650     1700   
                                           T        V       H0       H01     AOSYM     SMH    MOLCAS    OPER   

 PROGRAMS   *        TOTAL       INT
 CPU TIMES  *         5.82      5.75
 REAL TIME  *         6.63 SEC
 DISK USED  *         1.52 GB      
 GA USED    *         0.00 MB       (max)       0.00 MB       (current)
 **********************************************************************************************************************************

1PROGRAM * RHF-SCF (CLOSED SHELL)       Authors: W. Meyer, H.-J. Werner


 NUMBER OF ELECTRONS:      16+   16-
 CONVERGENCE THRESHOLDS:    1.00E-05 (Density)    1.00E-07 (Energy)
 MAX. NUMBER OF ITERATIONS:       60
 INTERPOLATION TYPE:            DIIS
 INTERPOLATION STEPS:              2 (START)      1 (STEP)
 LEVEL SHIFTS:                  0.00 (CLOSED)  0.00 (OPEN) 



 Orbital guess generated from atomic densities. Full valence occupancy:   11   7   3   1

 Molecular orbital dump at record        2100.2

 Initial alpha occupancy:   8   5   2   1
 Initial beta  occupancy:   8   5   2   1
 Wave function symmetry:    1

 ITERATION    DDIFF          GRAD             ENERGY        2-EL.EN.            DIPOLE MOMENTS         DIIS
    1      0.000D+00      0.000D+00      -263.52335890    437.424807   -1.53281    0.00000    0.00000    0
    2      0.000D+00      0.955D-02      -263.60489099    435.525529   -0.80219    0.00000    0.00000    1
    3      0.151D-01      0.617D-02      -263.65133251    437.030882   -1.00281    0.00000    0.00000    2
    4      0.593D-02      0.614D-03      -263.65204106    436.761962   -0.99842    0.00000    0.00000    3
    5      0.882D-03      0.229D-03      -263.65213738    436.810412   -0.98871    0.00000    0.00000    4
    6      0.301D-03      0.754D-04      -263.65214980    436.830215   -0.98913    0.00000    0.00000    5
    7      0.111D-03      0.224D-04      -263.65215123    436.820534   -0.98849    0.00000    0.00000    6
    8      0.380D-04      0.413D-05      -263.65215130    436.821971   -0.98857    0.00000    0.00000    7
    9      0.899D-05      0.120D-05      -263.65215130    436.821900   -0.98855    0.00000    0.00000    0

 Final occupancy:   8   5   2   1

 !RHF STATE 1.1 Energy               -263.652151301606
 Nuclear energy                       122.79964344
 One-electron energy                 -604.86274462
 Two-electron energy                  218.41094987
 Virial quotient                       -0.99912165
 !RHF STATE 1.1 Dipole moment          -0.98854544     0.00000000     0.00000000
 Dipole moment /Debye                  -2.51246733     0.00000000     0.00000000

 Orbital energies:

         1.1          2.1          3.1          4.1          5.1          6.1          7.1          8.1          9.1         10.1
    -20.679450   -20.534850   -11.514152    -1.595715    -1.361429    -0.843248    -0.795348    -0.532200     0.030369     0.065061

         1.2          2.2          3.2          4.2          5.2          6.2          7.2
    -20.679492    -1.530439    -0.786501    -0.766354    -0.558530     0.053252     0.096893

         1.3          2.3          3.3          4.3
     -0.759903    -0.500623     0.069118     0.162823

         1.4          2.4          3.4
     -0.582188     0.154609     0.320419


 **********************************************************************************************************************************
 DATASETS  * FILE   NREC   LENGTH (MB)   RECORD NAMES
              1      18        3.25       500      610      700      900      950      970     1000      129      960     1100   
                                          VAR    BASINP    GEOM    SYMINP    ZMAT    AOBASIS   BASIS     P2S    ABASIS      S 
                                         1400     1410     1200     1210     1080     1600     1650     1700   
                                           T        V       H0       H01     AOSYM     SMH    MOLCAS    OPER   

              2       3        0.68       700     1000     2100   
                                         GEOM     BASIS     RHF  

 PROGRAMS   *        TOTAL        HF       INT
 CPU TIMES  *         7.00      1.18      5.75
 REAL TIME  *         7.97 SEC
 DISK USED  *         1.54 GB      
 SF USED    *         0.06 MB      
 GA USED    *         0.00 MB       (max)       0.00 MB       (current)
 **********************************************************************************************************************************


1PROGRAM * CCSD (Closed-shell coupled cluster)     Authors: C. Hampel, H.-J. Werner, 1991, M. Deegan, P.J. Knowles, 1992

                                  CCSD-F12 implementation by  H.-J. Werner, 2007

                   Density fitting integral evaluation by F.R. Manby, 2003,2007, G. Knizia, 2010

 Basis set CC-PVTZ/JKFIT generated.      Number of basis functions:   376 
 Basis set AUG-CC-PVTZ/MP2FIT generated. Number of basis functions:   516 

 Convergence thresholds:  THRVAR = 1.00D-08  THRDEN = 1.00D-06

 CCSD(T)     terms to be evaluated (factor= 1.000)


 Number of core orbitals:           4 (   3   1   0   0 )
 Number of closed-shell orbitals:  12 (   5   4   2   1 )
 Number of external orbitals:     214 (  76  63  43  32 )

 Molecular orbitals read from record     2100.2  Type=RHF/CANONICAL (state 1.1)

 MP2-F12 correlation treatment (H.-J. Werner, 2006)
 --------------------------------------------------

 Using MP2-F12 with ansatz 3C(FIX)

 Using projected zeroth-order Hamiltonian (+Z)

 FOCKRIB=T FOCKRIC=T FOCKRIP=T CABSP=T CABSA=T CABSK=T CABSF=T GBC=F EBC=F DMAT=T NOFIK=T NOPAO=1 SOLVE=-1  USEPAO=0
 EXCH_A= T EXCH_B= F EXCH_C= F EXCH_P= F
 
 Geminal basis:    OPTFULL  GEM_TYPE=SLATER  BETA=1.0  NGEM=6

 Optimizing Gaussian exponents for each gem_beta

 Geminal optimization for beta= 1.0000
 Weight function:   m=0, omega= 1.4646

 Augmented Hessian optimization of geminal fit. Trust ratio= 0.40000
 Convergence reached after   2 iterations. Final gradient= 8.24D-16, Step= 4.32D-06, Delta= 1.28D-09
 
 Alpha:                 0.19532     0.81920     2.85917     9.50073    35.69989   197.79328
 Coeff:                 0.27070     0.30552     0.18297     0.10986     0.06810     0.04224
 

 Symmetry turned off. Reference energy:       -263.652151301606

 All pairs explicitly correlated. Number of r12-pairs:           78
 
 AO(A)-basis ORBITAL           loaded. Number of functions:     230
 RI(R)-basis CC-PVTZ/JKFIT     loaded. Number of functions:     376
 DF-basis CC-PVTZ/JKFIT        loaded. Number of functions:     376

 Screening thresholds:   THRAO=  1.00D-10  THRMO=  1.00D-09  THRPROD=  1.00D-09
                         THRSW=  1.00D-05  THROV=  1.00D-12  THRF12=   1.00D-08

 CPU time for Fock operators                      1.00 sec
 
 Construction of ABS:
 Smallest eigenvalue of S          1.80E-04  (threshold= 1.00E-08)
 Ratio eigmin/eigmax               1.27E-06  (threshold= 1.00E-09)
 Smallest eigenvalue of S kept     1.80E-04  (threshold= 1.80E-04, 0 functions deleted, 376 kept)
 
 Construction of CABS:
 Smallest eigenvalue of S          2.05E-08  (threshold= 1.00E-08)
 Ratio eigmin/eigmax               2.05E-08  (threshold= 1.00E-09)
 Smallest eigenvalue of S kept     2.05E-08  (threshold= 2.05E-08, 0 functions deleted, 376 kept)
 
 CPU time for CABS singles                        0.16 sec

 CABS-singles contribution of  -0.01597007 patched into reference energy.
 New reference energy        -263.66812137
 
 AO(A)-basis ORBITAL           loaded. Number of functions:     230
 RI(R)-basis CC-PVTZ/JKFIT     loaded. Number of functions:     376
 DF-basis AUG-CC-PVTZ/MP2FIT   loaded. Number of functions:     516

 Screening thresholds:   THRAO=  1.00D-10  THRMO=  1.00D-09  THRPROD=  1.00D-09
                         THRSW=  1.00D-05  THROV=  1.00D-12  THRF12=   1.00D-08

 CPU time for 3-index integral evaluation         3.24 sec
 CPU time for first  half transformation          0.23 sec (12823.8 MFLOP/sec)
 CPU time for second half transformation          0.02 sec ( 5197.6 MFLOP/sec)
 CPU time for sorting                             0.16 sec
 CPU time for fitting                             0.04 sec (34826.3 MFLOP/sec)
 CPU time for tilde quantities                    0.05 sec (36977.6 MFLOP/sec)
 CPU time for assembly                            0.78 sec (29548.5 MFLOP/sec)
 CPU time for tranop_f12                          0.85 sec (34912.3 MFLOP/sec)
 CPU time for f12 integrals (total)               7.38 sec
 F12-matrices built in  3 passes.
 F12-matrices built in  3 passes.
 F12-matrices built in  3 passes.
 F12-matrices built in  3 passes.
 FC-matrix built in  3 passes.
 CPU time for f12 matrices (total)                0.49 sec

 Diagonal F12 approximation with fixed coefficients:  TSING= 0.500,  TTRIP= 0.250 (scaled by -1/beta)

 DF-MP2-F12 energy corrections:
 ------------------------------
 Approx.                                    Singlet             Triplet             Total
 DF-MP2-F12/3*C(DX,FIX)                -0.097634378813     -0.017419102685     -0.115053481497
 DF-MP2-F12/3*C(FIX)                   -0.079836805271     -0.013828895457     -0.093665700728
 DF-MP2-F12/3C(FIX)                    -0.080296180218     -0.013933619122     -0.094229799340

 DF-MP2-F12 correlation energies:
 --------------------------------
 Approx.                                    Singlet             Triplet             Ecorr            Total Energy
 DF-MP2                                -0.541044457217     -0.357914312050     -0.898958769267   -264.567080139490
 DF-MP2-F12/3*C(DX,FIX)                -0.638678836030     -0.375333414734     -1.014012250764   -264.682133620987
 DF-MP2-F12/3*C(FIX)                   -0.620881262489     -0.371743207507     -0.992624469995   -264.660745840218
 DF-MP2-F12/3C(FIX)                    -0.621340637436     -0.371847931171     -0.993188568607   -264.661309938830

 SCS-DF-MP2 energies (F_SING= 1.20000  F_TRIP= 0.62222  F_PARALLEL= 0.33333):
 ----------------------------------------------------------------------------
 SCS-DF-MP2                            -0.871955587269   -264.540076957492
 SCS-DF-MP2-F12/3*C(DX,FIX)            -0.999955394626   -264.668076764849
 SCS-DF-MP2-F12/3*C(FIX)               -0.976364399657   -264.644485769880
 SCS-DF-MP2-F12/3C(FIX)                -0.976980810985   -264.645102181208

 Symmetry restored.
 Symmetry transformation completed.

 Number of N-1 electron functions:              12
 Number of N-2 electron functions:              78
 Number of singly external CSFs:               750
 Number of doubly external CSFs:            844332
 Total number of CSFs:                      845083

 Pair and operator lists are different

 Length of J-op  integral file:             462.28 MB
 Length of K-op  integral file:             502.25 MB
 Length of 3-ext integral record:             0.00 MB

 Memory could be reduced to 38.71 Mwords without degradation in triples

 Integral transformation finished. Total CPU:   1.36 sec, npass=  1  Memory used:   7.09 MW

 Reference energy:                   -263.66812137

 Adding F12 terms to K(Cij), methodcc=6,  factor=1.0

 ITER.      SQ.NORM     CORR.ENERGY   TOTAL ENERGY   ENERGY CHANGE        DEN1      VAR(S)    VAR(P)  DIIS     TIME
   1      1.20096603    -0.87813316  -264.54625453     0.02082270     0.05003097  0.78D-02  0.55D-02  1  1    11.63
   2      1.21517616    -0.87357737  -264.54169874     0.00455579    -0.02053253  0.99D-04  0.56D-03  2  2    12.54
   3      1.22046580    -0.87366065  -264.54178202    -0.00008328    -0.00216421  0.15D-03  0.29D-04  3  3    13.43
   4      1.22334655    -0.87348492  -264.54160629     0.00017573    -0.00140439  0.10D-04  0.40D-05  4  4    14.37
   5      1.22445740    -0.87344384  -264.54156521     0.00004108    -0.00037736  0.14D-05  0.32D-06  5  5    15.32
   6      1.22465027    -0.87341749  -264.54153886     0.00002634    -0.00000481  0.18D-06  0.67D-07  6  6    16.25
   7      1.22470847    -0.87341308  -264.54153445     0.00000441    -0.00000799  0.60D-07  0.10D-07  6  2    17.16
   8      1.22471852    -0.87341275  -264.54153412     0.00000033     0.00000135  0.68D-08  0.25D-08  6  1    18.08
   9      1.22472054    -0.87341330  -264.54153467    -0.00000055     0.00000208  0.11D-08  0.33D-09  6  4    19.00

 Norm of t1 vector:      0.11101626      S-energy:    -0.00000004      T1 diagnostic:  0.01602382
                                                                       D1 diagnostic:  0.04938304

 Adding energy correction from Wij-K(Fij), methodcc=6  factor=1.0
 
  CCSD correlation energy              -0.873413297738
  MP2-F12 correction (uncoupled)       -0.092759124982
  C*T doubles correction               -0.001656524673
  f12b correction                       0.015414573106


 Total CPU time for triples:     25.90 sec


 RESULTS
 =======

  Reference energy                   -263.652151301606
  F12 singles correction               -0.015970068617

 F12 singles corrections added to reference energy

  New reference energy               -263.668121370223

  F12a singlet correction              -0.080418690665
  F12a triplet correction              -0.013996958990
  F12a total correction                -0.094415649654

 F12a corrections for ansatz F12/3C(FIX) added to CCSD energy
 
  CCSD-F12a singlet pair energy        -0.642051824648
  CCSD-F12a triplet pair energy        -0.325777084349
  CCSD-F12a correlation energy         -0.967828947393

  Triples (T) contribution             -0.040233195616
  Total correlation energy             -1.008062143009

  CCSD-F12a total energy             -264.635950317615
  CCSD[T]-F12a energy                -264.678918978527
  CCSD-T-F12a energy                 -264.675207250049
 !CCSD(T)-F12a total energy          -264.676183513232

 F12b corrections for ansatz F12/3C(FIX) added to CCSD(T)-F12a energy

  CCSD-F12b singlet pair energy        -0.627914908737
  CCSD-F12b triplet pair energy        -0.324499427153
  CCSD-F12b correlation energy         -0.952414374286

  Triples (T) contribution             -0.040233195616
  Total correlation energy             -0.992647569903

  CCSD-F12b total energy             -264.620535744509
  CCSD[T]-F12b energy                -264.663504405421
  CCSD-T-F12b energy                 -264.659792676943
 !CCSD(T)-F12b total energy          -264.660768940125

 Timing summary (sec):

 STEP                 CPU(USER)    SYS     CPU(TOT)    WALL
 Transformation          1.37      0.23      1.60      1.60
 CCSD iterations         8.21      0.73      8.94      8.92
 Triples                25.90      0.73     26.63     26.63
 MP2-F12                 9.43      1.17     10.60     10.61
 F12b energy             0.54      0.03      0.57      0.58

 Program statistics:

 Available memory in ccsd:                99998934
 Min. memory needed in ccsd:               2252999
 Max. memory used in ccsd:                 3011949
 Max. memory used in cckext:               2777209 (10 integral passes)



 **********************************************************************************************************************************
 DATASETS  * FILE   NREC   LENGTH (MB)   RECORD NAMES
              1      20      137.17       500      610      700      900      950      970     1000      129      960     1100   
                                          VAR    BASINP    GEOM    SYMINP    ZMAT    AOBASIS   BASIS     P2S    ABASIS      S 
                                         1400     1410     1200     1210     1080     1600     1650     1700      960(1)  1380   
                                           T        V       H0       H01     AOSYM     SMH    MOLCAS    OPER    ABASIS    JKOP   

              2       5        0.98       700     1000     2100     7360     7350   
                                         GEOM     BASIS     RHF    F12ABS    EF12   

 PROGRAMS   *        TOTAL   CCSD(T)        HF       INT
 CPU TIMES  *        52.50     45.50      1.18      5.75
 REAL TIME  *        56.61 SEC
 DISK USED  *         1.76 GB      
 SF USED    *         1.34 GB      
 GA USED    *         2.40 MB       (max)       0.00 MB       (current)
 **********************************************************************************************************************************

     CCSD(T)-F12        HF-SCF  
   -264.66076894   -263.65215130
 **********************************************************************************************************************************
 Variable memory released
