
 Primary working directories    : /scratch/kee
 Secondary working directories  : /scratch/kee
 Wavefunction directory         : /home/kee/wfu/
 Main file repository           : /scratch/kee/

 ARCHNAME  : Linux/x86_64
 FC        : /opt/intel/composer_xe_2015.0.090/bin/intel64/ifort
 FCVERSION : 15.0.0
 BLASLIB   : -L/opt/intel/mkl/lib/intel64 -lmkl_intel_ilp64 -lmkl_sequential -lmkl_core
 id        : emory

 Nodes     nprocs
 node7        3
 Number of processes for MPI-2 version of Molpro:   nprocs(total)=    4   nprocs(compute)=    3   nprocs(helper)=    1
 ga_uses_ma=false, calling ma_init with nominal heap.
 GA-space will be limited to   8.0 MW (determined by -G option)

 Using customized tuning parameters: mindgm=7; mindgv=32; mindgc=1; mindgr=1; noblas=0; mincuda=1000; minvec=7
 default implementation of scratch files=sf  

 ***,co2h2o
 memory,100,m
 basis avtz
 geomtype = xyz
 geometry = {
 6
       0.00000000
 O     0.00351000    1.16210700    0.00000000
 O     0.00351000   -1.16210700    0.00000000
 O     3.51968000    0.00000000    0.00000000
 H     4.10589800    0.00000000    0.75853100
 H     4.10589800    0.00000000   -0.75853100
 C     0.01968000    0.00000000    0.00000000
 }
 hf
 ccsd(t)-f12
 ---

 Variables initialized (665), CPU time= 0.00 sec
 Commands  initialized (462), CPU time= 0.01 sec, 486 directives.
 Default parameters read. Elapsed time= 0.04 sec

 Checking input...
 Passed
1


                                         ***  PROGRAM SYSTEM MOLPRO  ***
                         Copyright, University College Cardiff Consultants Limited, 2008

                                    Version 2010.1 linked 9 Dec 2014 15:06:28 


 **********************************************************************************************************************************
 LABEL *   co2h2o                                                                        
 Linux-2.6.32-504.el6.x86_64/node7(x86_64) 64 bit mpp version                            DATE: 12-Dec-16          TIME: 14:47:14  
 **********************************************************************************************************************************

 Patch level:      19
 **********************************************************************************************************************************

 Variable memory set to  100000000 words,  buffer space   230000 words

 SETTING BASIS          =    AVTZ
 SETTING GEOMTYPE       =    XYZ

Geometry recognized as XYZ



 Recomputing integrals since basis changed


 Using spherical harmonics

 Library entry O      S aug-cc-pVTZ          selected for orbital group  1
 Library entry O      P aug-cc-pVTZ          selected for orbital group  1
 Library entry O      D aug-cc-pVTZ          selected for orbital group  1
 Library entry O      F aug-cc-pVTZ          selected for orbital group  1
 Library entry H      S aug-cc-pVTZ          selected for orbital group  2
 Library entry H      P aug-cc-pVTZ          selected for orbital group  2
 Library entry H      D aug-cc-pVTZ          selected for orbital group  2
 Library entry C      S aug-cc-pVTZ          selected for orbital group  3
 Library entry C      P aug-cc-pVTZ          selected for orbital group  3
 Library entry C      D aug-cc-pVTZ          selected for orbital group  3
 Library entry C      F aug-cc-pVTZ          selected for orbital group  3

1PROGRAM * SEWARD (Integral evaluation for generally contracted gaussian basis sets)     Author: Roland Lindh, 1990

 Geometry written to block  1 of record 700


 Point group  C2v 



 ATOMIC COORDINATES

 NR  ATOM    CHARGE       X              Y              Z

   1  O       8.00    0.006632939    2.196063965    0.000000000
   2  O       8.00    0.006632939   -2.196063965    0.000000000
   3  O       8.00    6.651231270    0.000000000    0.000000000
   4  H       1.00    7.759022744    0.000000000    1.433415852
   5  H       1.00    7.759022744    0.000000000   -1.433415852
   6  C       6.00    0.037189810    0.000000000    0.000000000

 Bond lengths in Bohr (Angstrom)

 1-6  2.196276545  2-6  2.196276545  3-4  1.811596797  3-5  1.811596797
     (1.162219492)     (1.162219492)     (0.958655737)     (0.958655737)

 Bond angles

  1-6-2  178.40563223   4-3-5  104.60391356

 NUCLEAR CHARGE:                   32
 NUMBER OF PRIMITIVE AOS:         322
 NUMBER OF SYMMETRY AOS:          282
 NUMBER OF CONTRACTIONS:          230   (  84A1  +  59B1  +  54B2  +  33A2  )
 NUMBER OF CORE ORBITALS:           4   (   3A1  +   1B1  +   0B2  +   0A2  )
 NUMBER OF VALENCE ORBITALS:       18   (   8A1  +   5B1  +   4B2  +   1A2  )


 NUCLEAR REPULSION ENERGY   98.44866970


 Eigenvalues of metric

         1 0.318E-03 0.378E-03 0.889E-03 0.143E-02 0.232E-02 0.316E-02 0.328E-02 0.393E-02
         2 0.346E-03 0.880E-03 0.174E-02 0.317E-02 0.504E-02 0.701E-02 0.151E-01 0.207E-01
         3 0.376E-03 0.161E-02 0.315E-02 0.422E-02 0.617E-02 0.891E-02 0.132E-01 0.144E-01
         4 0.347E-02 0.124E-01 0.295E-01 0.362E-01 0.555E-01 0.682E-01 0.108E+00 0.140E+00


 Contracted 2-electron integrals neglected if value below      1.0D-11
 AO integral compression algorithm  1   Integral accuracy      1.0D-11

     348.914 MB (compressed) written to integral file ( 39.1%)

     Node minimum: 107.479 MB, node maximum: 130.810 MB


 NUMBER OF SORTED TWO-ELECTRON INTEGRALS:   29979201.     BUFFER LENGTH:  32768
 NUMBER OF SEGMENTS:   2  SEGMENT LENGTH:   15996954      RECORD LENGTH: 524288

 Memory used in sort:      16.55 MW

 SORT1 READ   111555100. AND WROTE    24787071. INTEGRALS IN     72 RECORDS. CPU TIME:     2.22 SEC, REAL TIME:     2.51 SEC
 SORT2 READ    74514132. AND WROTE    89930217. INTEGRALS IN   1230 RECORDS. CPU TIME:     0.59 SEC, REAL TIME:     0.79 SEC

 Node minimum:    29974277.  Node maximum:    29979201. integrals

 OPERATOR DM      FOR CENTER  0  COORDINATES:    0.000000    0.000000    0.000000


 **********************************************************************************************************************************
 DATASETS  * FILE   NREC   LENGTH (MB)   RECORD NAMES
              1      18        3.23       500      610      700      900      950      970     1000      129      960     1100   
                                          VAR    BASINP    GEOM    SYMINP    ZMAT    AOBASIS   BASIS     P2S    ABASIS      S 
                                         1400     1410     1200     1210     1080     1600     1650     1700   
                                           T        V       H0       H01     AOSYM     SMH    MOLCAS    OPER   

 PROGRAMS   *        TOTAL       INT
 CPU TIMES  *         5.90      5.83
 REAL TIME  *         6.52 SEC
 DISK USED  *         1.23 GB      
 GA USED    *         0.00 MB       (max)       0.00 MB       (current)
 **********************************************************************************************************************************

1PROGRAM * RHF-SCF (CLOSED SHELL)       Authors: W. Meyer, H.-J. Werner


 NUMBER OF ELECTRONS:      16+   16-
 CONVERGENCE THRESHOLDS:    1.00E-05 (Density)    1.00E-07 (Energy)
 MAX. NUMBER OF ITERATIONS:       60
 INTERPOLATION TYPE:            DIIS
 INTERPOLATION STEPS:              2 (START)      1 (STEP)
 LEVEL SHIFTS:                  0.00 (CLOSED)  0.00 (OPEN) 



 Orbital guess generated from atomic densities. Full valence occupancy:   11   6   4   1

 Molecular orbital dump at record        2100.2

 Initial alpha occupancy:   8   5   2   1
 Initial beta  occupancy:   8   5   2   1
 Wave function symmetry:    1

 ITERATION    DDIFF          GRAD             ENERGY        2-EL.EN.            DIPOLE MOMENTS         DIIS
    1      0.000D+00      0.000D+00      -263.66446050    393.056748    1.18590    0.00000    0.00000    0
    2      0.000D+00      0.880D-02      -263.72897139    388.326334    0.78435    0.00000    0.00000    1
    3      0.141D-01      0.592D-02      -263.77060886    390.872522    0.87671    0.00000    0.00000    2
    4      0.578D-02      0.569D-03      -263.77110376    390.675009    0.87917    0.00000    0.00000    3
    5      0.697D-03      0.167D-03      -263.77116209    390.669312    0.87459    0.00000    0.00000    4
    6      0.260D-03      0.679D-04      -263.77116952    390.685581    0.87544    0.00000    0.00000    5
    7      0.868D-04      0.162D-04      -263.77117026    390.676990    0.87505    0.00000    0.00000    6
    8      0.283D-04      0.358D-05      -263.77117031    390.678331    0.87507    0.00000    0.00000    7
    9      0.765D-05      0.120D-05      -263.77117031    390.678107    0.87504    0.00000    0.00000    0

 Final occupancy:   8   5   2   1

 !RHF STATE 1.1 Energy               -263.771170310752
 Nuclear energy                        98.44866970
 One-electron energy                 -557.55889369
 Two-electron energy                  195.33905368
 Virial quotient                       -1.00183885
 !RHF STATE 1.1 Dipole moment           0.87504004     0.00000000     0.00000000
 Dipole moment /Debye                   2.22398427     0.00000000     0.00000000

 Orbital energies:

         1.1          2.1          3.1          4.1          5.1          6.1          7.1          8.1          9.1         10.1
    -20.637742   -20.573819   -11.447131    -1.515441    -1.359467    -0.786350    -0.699259    -0.592337     0.026412     0.062404

         1.2          2.2          3.2          4.2          5.2          6.2          7.2
    -20.637788    -1.462472    -0.728742    -0.529792    -0.516599     0.086569     0.162535

         1.3          2.3          3.3          4.3
     -0.723880    -0.699864     0.045691     0.087597

         1.4          2.4          3.4
     -0.529709     0.169814     0.267216


 **********************************************************************************************************************************
 DATASETS  * FILE   NREC   LENGTH (MB)   RECORD NAMES
              1      18        3.25       500      610      700      900      950      970     1000      129      960     1100   
                                          VAR    BASINP    GEOM    SYMINP    ZMAT    AOBASIS   BASIS     P2S    ABASIS      S 
                                         1400     1410     1200     1210     1080     1600     1650     1700   
                                           T        V       H0       H01     AOSYM     SMH    MOLCAS    OPER   

              2       3        0.67       700     1000     2100   
                                         GEOM     BASIS     RHF  

 PROGRAMS   *        TOTAL        HF       INT
 CPU TIMES  *         7.18      1.28      5.83
 REAL TIME  *         7.93 SEC
 DISK USED  *         1.25 GB      
 SF USED    *         0.06 MB      
 GA USED    *         0.00 MB       (max)       0.00 MB       (current)
 **********************************************************************************************************************************


1PROGRAM * CCSD (Closed-shell coupled cluster)     Authors: C. Hampel, H.-J. Werner, 1991, M. Deegan, P.J. Knowles, 1992

                                  CCSD-F12 implementation by  H.-J. Werner, 2007

                   Density fitting integral evaluation by F.R. Manby, 2003,2007, G. Knizia, 2010

 Basis set CC-PVTZ/JKFIT generated.      Number of basis functions:   376 
 Basis set AUG-CC-PVTZ/MP2FIT generated. Number of basis functions:   516 

 Convergence thresholds:  THRVAR = 1.00D-08  THRDEN = 1.00D-06

 CCSD(T)     terms to be evaluated (factor= 1.000)


 Number of core orbitals:           4 (   3   1   0   0 )
 Number of closed-shell orbitals:  12 (   5   4   2   1 )
 Number of external orbitals:     214 (  76  54  52  32 )

 Molecular orbitals read from record     2100.2  Type=RHF/CANONICAL (state 1.1)

 MP2-F12 correlation treatment (H.-J. Werner, 2006)
 --------------------------------------------------

 Using MP2-F12 with ansatz 3C(FIX)

 Using projected zeroth-order Hamiltonian (+Z)

 FOCKRIB=T FOCKRIC=T FOCKRIP=T CABSP=T CABSA=T CABSK=T CABSF=T GBC=F EBC=F DMAT=T NOFIK=T NOPAO=1 SOLVE=-1  USEPAO=0
 EXCH_A= T EXCH_B= F EXCH_C= F EXCH_P= F
 
 Geminal basis:    OPTFULL  GEM_TYPE=SLATER  BETA=1.0  NGEM=6

 Optimizing Gaussian exponents for each gem_beta

 Geminal optimization for beta= 1.0000
 Weight function:   m=0, omega= 1.4646

 Augmented Hessian optimization of geminal fit. Trust ratio= 0.40000
 Convergence reached after   2 iterations. Final gradient= 8.24D-16, Step= 4.32D-06, Delta= 1.28D-09
 
 Alpha:                 0.19532     0.81920     2.85917     9.50073    35.69989   197.79328
 Coeff:                 0.27070     0.30552     0.18297     0.10986     0.06810     0.04224
 

 Symmetry turned off. Reference energy:       -263.771170310751

 All pairs explicitly correlated. Number of r12-pairs:           78
 
 AO(A)-basis ORBITAL           loaded. Number of functions:     230
 RI(R)-basis CC-PVTZ/JKFIT     loaded. Number of functions:     376
 DF-basis CC-PVTZ/JKFIT        loaded. Number of functions:     376

 Screening thresholds:   THRAO=  1.00D-10  THRMO=  1.00D-09  THRPROD=  1.00D-09
                         THRSW=  1.00D-05  THROV=  1.00D-12  THRF12=   1.00D-08

 CPU time for Fock operators                      0.89 sec
 
 Construction of ABS:
 Smallest eigenvalue of S          2.56E-04  (threshold= 1.00E-08)
 Ratio eigmin/eigmax               1.83E-06  (threshold= 1.00E-09)
 Smallest eigenvalue of S kept     2.56E-04  (threshold= 2.56E-04, 0 functions deleted, 376 kept)
 
 Construction of CABS:
 Smallest eigenvalue of S          2.28E-08  (threshold= 1.00E-08)
 Ratio eigmin/eigmax               2.28E-08  (threshold= 1.00E-09)
 Smallest eigenvalue of S kept     2.28E-08  (threshold= 2.28E-08, 0 functions deleted, 376 kept)
 
 CPU time for CABS singles                        0.15 sec

 CABS-singles contribution of  -0.01592741 patched into reference energy.
 New reference energy        -263.78709772
 
 AO(A)-basis ORBITAL           loaded. Number of functions:     230
 RI(R)-basis CC-PVTZ/JKFIT     loaded. Number of functions:     376
 DF-basis AUG-CC-PVTZ/MP2FIT   loaded. Number of functions:     516

 Screening thresholds:   THRAO=  1.00D-10  THRMO=  1.00D-09  THRPROD=  1.00D-09
                         THRSW=  1.00D-05  THROV=  1.00D-12  THRF12=   1.00D-08

 CPU time for 3-index integral evaluation         2.64 sec
 CPU time for first  half transformation          0.24 sec (12351.8 MFLOP/sec)
 CPU time for second half transformation          0.03 sec ( 3465.1 MFLOP/sec)
 CPU time for sorting                             0.12 sec
 CPU time for fitting                             0.05 sec (27861.0 MFLOP/sec)
 CPU time for tilde quantities                    0.05 sec (36977.6 MFLOP/sec)
 CPU time for assembly                            0.72 sec (32817.9 MFLOP/sec)
 CPU time for tranop_f12                          0.83 sec (36566.2 MFLOP/sec)
 CPU time for f12 integrals (total)               6.58 sec
 F12-matrices built in  3 passes.
 F12-matrices built in  3 passes.
 F12-matrices built in  3 passes.
 F12-matrices built in  3 passes.
 FC-matrix built in  3 passes.
 CPU time for f12 matrices (total)                0.45 sec

 Diagonal F12 approximation with fixed coefficients:  TSING= 0.500,  TTRIP= 0.250 (scaled by -1/beta)

 DF-MP2-F12 energy corrections:
 ------------------------------
 Approx.                                    Singlet             Triplet             Total
 DF-MP2-F12/3*C(DX,FIX)                -0.097383773302     -0.016939624471     -0.114323397772
 DF-MP2-F12/3*C(FIX)                   -0.079812618142     -0.013410770645     -0.093223388787
 DF-MP2-F12/3C(FIX)                    -0.080178294760     -0.013438702717     -0.093616997477

 DF-MP2-F12 correlation energies:
 --------------------------------
 Approx.                                    Singlet             Triplet             Ecorr            Total Energy
 DF-MP2                                -0.537762945963     -0.343463058143     -0.881226004106   -264.668323724705
 DF-MP2-F12/3*C(DX,FIX)                -0.635146719265     -0.360402682613     -0.995549401878   -264.782647122477
 DF-MP2-F12/3*C(FIX)                   -0.617575564105     -0.356873828788     -0.974449392893   -264.761547113491
 DF-MP2-F12/3C(FIX)                    -0.617941240724     -0.356901760860     -0.974843001583   -264.761940722182

 SCS-DF-MP2 energies (F_SING= 1.20000  F_TRIP= 0.62222  F_PARALLEL= 0.33333):
 ----------------------------------------------------------------------------
 SCS-DF-MP2                            -0.859025882445   -264.646123603043
 SCS-DF-MP2-F12/3*C(DX,FIX)            -0.986426621189   -264.773524341787
 SCS-DF-MP2-F12/3*C(FIX)               -0.963145503727   -264.750243224326
 SCS-DF-MP2-F12/3C(FIX)                -0.963601695626   -264.750699416224

 Symmetry restored.
 Symmetry transformation completed.

 Number of N-1 electron functions:              12
 Number of N-2 electron functions:              78
 Number of singly external CSFs:               732
 Number of doubly external CSFs:            836016
 Total number of CSFs:                      836749

 Pair and operator lists are different

 Length of J-op  integral file:             462.26 MB
 Length of K-op  integral file:             502.03 MB
 Length of 3-ext integral record:             0.00 MB

 Memory could be reduced to 38.69 Mwords without degradation in triples

 Integral transformation finished. Total CPU:   1.29 sec, npass=  1  Memory used:   6.07 MW

 Reference energy:                   -263.78709772

 Adding F12 terms to K(Cij), methodcc=6,  factor=1.0

 ITER.      SQ.NORM     CORR.ENERGY   TOTAL ENERGY   ENERGY CHANGE        DEN1      VAR(S)    VAR(P)  DIIS     TIME
   1      1.20216315    -0.86317338  -264.65027110     0.01806779     0.04665228  0.72D-02  0.55D-02  1  1    10.52
   2      1.21648013    -0.85897767  -264.64607539     0.00419571    -0.02014399  0.87D-04  0.59D-03  2  2    11.45
   3      1.22185117    -0.85908169  -264.64617941    -0.00010402    -0.00236247  0.13D-03  0.32D-04  3  3    12.39
   4      1.22466217    -0.85895413  -264.64605185     0.00012756    -0.00141345  0.77D-05  0.41D-05  4  4    13.33
   5      1.22569530    -0.85891672  -264.64601444     0.00003741    -0.00036615  0.56D-06  0.28D-06  5  5    14.28
   6      1.22585834    -0.85888980  -264.64598752     0.00002692    -0.00000811  0.41D-07  0.24D-07  6  6    15.23
   7      1.22588809    -0.85888738  -264.64598510     0.00000243    -0.00000626  0.28D-08  0.40D-08  6  4    16.19
   8      1.22588854    -0.85888687  -264.64598459     0.00000051     0.00000190  0.40D-09  0.28D-09  6  1    17.13
   9      1.22588915    -0.85888694  -264.64598466    -0.00000007     0.00000057  0.29D-10  0.23D-10  6  2    18.07

 Norm of t1 vector:      0.10614048      S-energy:    -0.00000004      T1 diagnostic:  0.01532006
                                                                       D1 diagnostic:  0.04523241

 Adding energy correction from Wij-K(Fij), methodcc=6  factor=1.0
 
  CCSD correlation energy              -0.858886935109
  MP2-F12 correction (uncoupled)       -0.092458554333
  C*T doubles correction               -0.001472050471
  f12b correction                       0.015405845560


 Total CPU time for triples:     24.22 sec


 RESULTS
 =======

  Reference energy                   -263.771170310752
  F12 singles correction               -0.015927409847

 F12 singles corrections added to reference energy

  New reference energy               -263.787097720599

  F12a singlet correction              -0.080375816455
  F12a triplet correction              -0.013554788349
  F12a total correction                -0.093930604804

 F12a corrections for ansatz F12/3C(FIX) added to CCSD energy
 
  CCSD-F12a singlet pair energy        -0.641831474637
  CCSD-F12a triplet pair energy        -0.310986028358
  CCSD-F12a correlation energy         -0.952817539913

  Triples (T) contribution             -0.037727744989
  Total correlation energy             -0.990545284902

  CCSD-F12a total energy             -264.739915260512
  CCSD[T]-F12a energy                -264.780184299322
  CCSD-T-F12a energy                 -264.776708403487
 !CCSD(T)-F12a total energy          -264.777643005500

 F12b corrections for ansatz F12/3C(FIX) added to CCSD(T)-F12a energy

  CCSD-F12b singlet pair energy        -0.627650862234
  CCSD-F12b triplet pair energy        -0.309760795200
  CCSD-F12b correlation energy         -0.937411694353

  Triples (T) contribution             -0.037727744989
  Total correlation energy             -0.975139439342

  CCSD-F12b total energy             -264.724509414952
  CCSD[T]-F12b energy                -264.764778453762
  CCSD-T-F12b energy                 -264.761302557927
 !CCSD(T)-F12b total energy          -264.762237159940

 Timing summary (sec):

 STEP                 CPU(USER)    SYS     CPU(TOT)    WALL
 Transformation          1.30      0.22      1.52      1.51
 CCSD iterations         8.37      0.66      9.03      9.02
 Triples                24.22      0.70     24.92     24.91
 MP2-F12                 8.41      1.03      9.44      9.45
 F12b energy             0.58      0.02      0.60      0.60

 Program statistics:

 Available memory in ccsd:                99998934
 Min. memory needed in ccsd:               2244783
 Max. memory used in ccsd:                 3005571
 Max. memory used in cckext:               2769663 (10 integral passes)



 **********************************************************************************************************************************
 DATASETS  * FILE   NREC   LENGTH (MB)   RECORD NAMES
              1      20      137.19       500      610      700      900      950      970     1000      129      960     1100   
                                          VAR    BASINP    GEOM    SYMINP    ZMAT    AOBASIS   BASIS     P2S    ABASIS      S 
                                         1400     1410     1200     1210     1080     1600     1650     1700      960(1)  1380   
                                           T        V       H0       H01     AOSYM     SMH    MOLCAS    OPER    ABASIS    JKOP   

              2       5        0.97       700     1000     2100     7360     7350   
                                         GEOM     BASIS     RHF    F12ABS    EF12   

 PROGRAMS   *        TOTAL   CCSD(T)        HF       INT
 CPU TIMES  *        50.17     42.99      1.28      5.83
 REAL TIME  *        53.68 SEC
 DISK USED  *         1.47 GB      
 SF USED    *         1.34 GB      
 GA USED    *         2.40 MB       (max)       0.00 MB       (current)
 **********************************************************************************************************************************

     CCSD(T)-F12        HF-SCF  
   -264.76223716   -263.77117031
 **********************************************************************************************************************************
 Variable memory released
