
 Primary working directories    : /scratch/kee
 Secondary working directories  : /scratch/kee
 Wavefunction directory         : /home/kee/wfu/
 Main file repository           : /scratch/kee/

 ARCHNAME  : Linux/x86_64
 FC        : /opt/intel/composer_xe_2015.0.090/bin/intel64/ifort
 FCVERSION : 15.0.0
 BLASLIB   : -L/opt/intel/mkl/lib/intel64 -lmkl_intel_ilp64 -lmkl_sequential -lmkl_core
 id        : emory

 Nodes     nprocs
 node20       3
 Number of processes for MPI-2 version of Molpro:   nprocs(total)=    4   nprocs(compute)=    3   nprocs(helper)=    1
 ga_uses_ma=false, calling ma_init with nominal heap.
 GA-space will be limited to   8.0 MW (determined by -G option)

 Using customized tuning parameters: mindgm=7; mindgv=32; mindgc=1; mindgr=1; noblas=0; mincuda=1000; minvec=7
 default implementation of scratch files=sf  

 ***,co2h2o
 memory,100,m
 basis avtz
 geomtype = xyz
 geometry = {
 6
       0.00000000
 O     0.00032100    1.15989800    0.00000000
 O     0.00041400   -1.15989400    0.00000000
 O     7.78378515    5.70533382    2.04650103
 H     8.57533966    6.01428947    1.60415239
 H     8.09777096    5.22670607    2.81462326
 C     0.01953800    0.00000300    0.00000000
 }
 hf
 ccsd(t)-f12
 ---

 Variables initialized (665), CPU time= 0.01 sec
 Commands  initialized (462), CPU time= 0.01 sec, 486 directives.
 Default parameters read. Elapsed time= 0.03 sec

 Checking input...
 Passed
1


                                         ***  PROGRAM SYSTEM MOLPRO  ***
                         Copyright, University College Cardiff Consultants Limited, 2008

                                    Version 2010.1 linked 9 Dec 2014 15:06:28 


 **********************************************************************************************************************************
 LABEL *   co2h2o                                                                        
 Linux-2.6.32-504.el6.x86_64/node20(x86_64) 64 bit mpp version                           DATE: 15-Dec-16          TIME: 01:06:43  
 **********************************************************************************************************************************

 Patch level:      19
 **********************************************************************************************************************************

 Variable memory set to  100000000 words,  buffer space   230000 words

 SETTING BASIS          =    AVTZ
 SETTING GEOMTYPE       =    XYZ

Geometry recognized as XYZ



 Recomputing integrals since basis changed


 Using spherical harmonics

 Library entry O      S aug-cc-pVTZ          selected for orbital group  1
 Library entry O      P aug-cc-pVTZ          selected for orbital group  1
 Library entry O      D aug-cc-pVTZ          selected for orbital group  1
 Library entry O      F aug-cc-pVTZ          selected for orbital group  1
 Library entry H      S aug-cc-pVTZ          selected for orbital group  2
 Library entry H      P aug-cc-pVTZ          selected for orbital group  2
 Library entry H      D aug-cc-pVTZ          selected for orbital group  2
 Library entry C      S aug-cc-pVTZ          selected for orbital group  3
 Library entry C      P aug-cc-pVTZ          selected for orbital group  3
 Library entry C      D aug-cc-pVTZ          selected for orbital group  3
 Library entry C      F aug-cc-pVTZ          selected for orbital group  3

1PROGRAM * SEWARD (Integral evaluation for generally contracted gaussian basis sets)     Author: Roland Lindh, 1990

 Geometry written to block  1 of record 700


 Point group  C1  



 ATOMIC COORDINATES

 NR  ATOM    CHARGE       X              Y              Z

   1  O       8.00    0.000606602    2.191889560    0.000000000
   2  O       8.00    0.000782347   -2.191882001    0.000000000
   3  O       8.00   14.709222199   10.781518408    3.867326474
   4  H       1.00   16.205043441   11.365359973    3.031408690
   5  H       1.00   15.302569389    9.877043042    5.318867125
   6  C       6.00    0.036921469    0.000005669    0.000000000

 Bond lengths in Bohr (Angstrom)

 1-6  2.192184701  2-6  2.192185575  3-4  1.810279178  3-5  1.810278110
     (1.160054182)     (1.160054644)     (0.957958483)     (0.957957918)

 Bond angles

  1-6-2  178.10622893   4-3-5  105.10354968

 NUCLEAR CHARGE:                   32
 NUMBER OF PRIMITIVE AOS:         322
 NUMBER OF SYMMETRY AOS:          282
 NUMBER OF CONTRACTIONS:          230   ( 230A   )
 NUMBER OF CORE ORBITALS:           4   (   4A   )
 NUMBER OF VALENCE ORBITALS:       18   (  18A   )


 NUCLEAR REPULSION ENERGY   79.27984452


 Eigenvalues of metric

         1 0.347E-03 0.382E-03 0.392E-03 0.420E-03 0.896E-03 0.914E-03 0.167E-02 0.174E-02


 Contracted 2-electron integrals neglected if value below      1.0D-11
 AO integral compression algorithm  1   Integral accuracy      1.0D-11

     425.984 MB (compressed) written to integral file ( 20.8%)

     Node minimum: 130.286 MB, node maximum: 150.209 MB


 NUMBER OF SORTED TWO-ELECTRON INTEGRALS:  117629820.     BUFFER LENGTH:  32768
 NUMBER OF SEGMENTS:   8  SEGMENT LENGTH:   15997437      RECORD LENGTH: 524288

 Memory used in sort:      16.55 MW

 SORT1 READ   256266348. AND WROTE    29624601. INTEGRALS IN     88 RECORDS. CPU TIME:     2.30 SEC, REAL TIME:     2.64 SEC
 SORT2 READ    88372388. AND WROTE   352862895. INTEGRALS IN   1719 RECORDS. CPU TIME:     0.96 SEC, REAL TIME:     1.25 SEC

 Node minimum:   117612110.  Node maximum:   117629820. integrals

 OPERATOR DM      FOR CENTER  0  COORDINATES:    0.000000    0.000000    0.000000


 **********************************************************************************************************************************
 DATASETS  * FILE   NREC   LENGTH (MB)   RECORD NAMES
              1      18        4.62       500      610      700      900      950      970     1000      129      960     1100   
                                          VAR    BASINP    GEOM    SYMINP    ZMAT    AOBASIS   BASIS     P2S    ABASIS      S 
                                         1400     1410     1200     1210     1080     1600     1650     1700   
                                           T        V       H0       H01     AOSYM     SMH    MOLCAS    OPER   

 PROGRAMS   *        TOTAL       INT
 CPU TIMES  *         5.85      5.78
 REAL TIME  *         6.90 SEC
 DISK USED  *         1.45 GB      
 GA USED    *         0.00 MB       (max)       0.00 MB       (current)
 **********************************************************************************************************************************

1PROGRAM * RHF-SCF (CLOSED SHELL)       Authors: W. Meyer, H.-J. Werner


 NUMBER OF ELECTRONS:      16+   16-    SPACE SYMMETRY=1    SPIN SYMMETRY=Singlet 
 CONVERGENCE THRESHOLDS:    1.00E-05 (Density)    1.00E-07 (Energy)
 MAX. NUMBER OF ITERATIONS:       60
 INTERPOLATION TYPE:            DIIS
 INTERPOLATION STEPS:              2 (START)      1 (STEP)
 LEVEL SHIFTS:                  0.00 (CLOSED)  0.00 (OPEN) 



 Orbital guess generated from atomic densities. Full valence occupancy:   22

 Molecular orbital dump at record        2100.2

 ITERATION    DDIFF          GRAD             ENERGY        2-EL.EN.            DIPOLE MOMENTS         DIIS
    1      0.000D+00      0.000D+00      -263.66132525    354.076639    1.12568   -0.16409    0.31507    0
    2      0.000D+00      0.468D-02      -263.72652560    349.509596    0.64552   -0.09024    0.18693    1
    3      0.749D-02      0.317D-02      -263.76939779    352.063971    0.76614   -0.10955    0.21735    2
    4      0.307D-02      0.296D-03      -263.76988610    351.850514    0.76920   -0.10927    0.21860    3
    5      0.356D-03      0.858D-04      -263.76994250    351.854603    0.76411   -0.10912    0.21708    4
    6      0.132D-03      0.344D-04      -263.76994937    351.868337    0.76472   -0.10883    0.21731    5
    7      0.433D-04      0.851D-05      -263.76995008    351.860150    0.76430   -0.10896    0.21718    6
    8      0.141D-04      0.190D-05      -263.76995012    351.861390    0.76431   -0.10882    0.21718    7
    9      0.382D-05      0.822D-06      -263.76995013    351.861245    0.76428   -0.10895    0.21717    0

 Final occupancy:  16

 !RHF STATE 1.1 Energy               -263.769950127090
 Nuclear energy                        79.27984452
 One-electron energy                 -518.98041721
 Two-electron energy                  175.93062256
 Virial quotient                       -1.00173753
 !RHF STATE 1.1 Dipole moment           0.76427863    -0.10894747     0.21717281
 Dipole moment /Debye                   1.94247529    -0.27689872     0.55196206

 Orbital energies:

         1.1          2.1          3.1          4.1          5.1          6.1          7.1          8.1          9.1         10.1
    -20.651319   -20.651135   -20.567144   -11.459346    -1.530633    -1.477509    -1.352889    -0.799407    -0.742274    -0.718675

        11.1         12.1         13.1         14.1         15.1         16.1         17.1         18.1
     -0.714431    -0.714416    -0.583727    -0.543252    -0.543223    -0.510207     0.029076     0.046603


 **********************************************************************************************************************************
 DATASETS  * FILE   NREC   LENGTH (MB)   RECORD NAMES
              1      18        4.62       500      610      700      900      950      970     1000      129      960     1100   
                                          VAR    BASINP    GEOM    SYMINP    ZMAT    AOBASIS   BASIS     P2S    ABASIS      S 
                                         1400     1410     1200     1210     1080     1600     1650     1700   
                                           T        V       H0       H01     AOSYM     SMH    MOLCAS    OPER   

              2       3        1.44       700     1000     2100   
                                         GEOM     BASIS     RHF  

 PROGRAMS   *        TOTAL        HF       INT
 CPU TIMES  *        13.45      7.60      5.78
 REAL TIME  *        14.78 SEC
 DISK USED  *         1.49 GB      
 SF USED    *         0.21 MB      
 GA USED    *         0.00 MB       (max)       0.00 MB       (current)
 **********************************************************************************************************************************


1PROGRAM * CCSD (Closed-shell coupled cluster)     Authors: C. Hampel, H.-J. Werner, 1991, M. Deegan, P.J. Knowles, 1992

                                  CCSD-F12 implementation by  H.-J. Werner, 2007

                   Density fitting integral evaluation by F.R. Manby, 2003,2007, G. Knizia, 2010

 Basis set CC-PVTZ/JKFIT generated.      Number of basis functions:   376 
 Basis set AUG-CC-PVTZ/MP2FIT generated. Number of basis functions:   516 

 Convergence thresholds:  THRVAR = 1.00D-08  THRDEN = 1.00D-06

 CCSD(T)     terms to be evaluated (factor= 1.000)


 Number of core orbitals:           4 (   4 )
 Number of closed-shell orbitals:  12 (  12 )
 Number of external orbitals:     214 ( 214 )

 Molecular orbitals read from record     2100.2  Type=RHF/CANONICAL (state 1.1)

 MP2-F12 correlation treatment (H.-J. Werner, 2006)
 --------------------------------------------------

 Using MP2-F12 with ansatz 3C(FIX)

 Using projected zeroth-order Hamiltonian (+Z)

 FOCKRIB=T FOCKRIC=T FOCKRIP=T CABSP=T CABSA=T CABSK=T CABSF=T GBC=F EBC=F DMAT=T NOFIK=T NOPAO=1 SOLVE=-1  USEPAO=0
 EXCH_A= T EXCH_B= F EXCH_C= F EXCH_P= F
 
 Geminal basis:    OPTFULL  GEM_TYPE=SLATER  BETA=1.0  NGEM=6

 Optimizing Gaussian exponents for each gem_beta

 Geminal optimization for beta= 1.0000
 Weight function:   m=0, omega= 1.4646

 Augmented Hessian optimization of geminal fit. Trust ratio= 0.40000
 Convergence reached after   2 iterations. Final gradient= 8.24D-16, Step= 4.32D-06, Delta= 1.28D-09
 
 Alpha:                 0.19532     0.81920     2.85917     9.50073    35.69989   197.79328
 Coeff:                 0.27070     0.30552     0.18297     0.10986     0.06810     0.04224
 

 All pairs explicitly correlated. Number of r12-pairs:           78
 
 AO(A)-basis ORBITAL           loaded. Number of functions:     230
 RI(R)-basis CC-PVTZ/JKFIT     loaded. Number of functions:     376
 DF-basis CC-PVTZ/JKFIT        loaded. Number of functions:     376

 Screening thresholds:   THRAO=  1.00D-10  THRMO=  1.00D-09  THRPROD=  1.00D-09
                         THRSW=  1.00D-05  THROV=  1.00D-12  THRF12=   1.00D-08

 CPU time for Fock operators                      0.94 sec
 
 Construction of ABS:
 Smallest eigenvalue of S          2.57E-04  (threshold= 1.00E-08)
 Ratio eigmin/eigmax               1.83E-06  (threshold= 1.00E-09)
 Smallest eigenvalue of S kept     2.57E-04  (threshold= 2.57E-04, 0 functions deleted, 376 kept)
 
 Construction of CABS:
 Smallest eigenvalue of S          2.29E-08  (threshold= 1.00E-08)
 Ratio eigmin/eigmax               2.29E-08  (threshold= 1.00E-09)
 Smallest eigenvalue of S kept     2.29E-08  (threshold= 2.29E-08, 0 functions deleted, 376 kept)
 
 CPU time for CABS singles                        0.17 sec

 CABS-singles contribution of  -0.01596109 patched into reference energy.
 New reference energy        -263.78591122
 
 AO(A)-basis ORBITAL           loaded. Number of functions:     230
 RI(R)-basis CC-PVTZ/JKFIT     loaded. Number of functions:     376
 DF-basis AUG-CC-PVTZ/MP2FIT   loaded. Number of functions:     516

 Screening thresholds:   THRAO=  1.00D-10  THRMO=  1.00D-09  THRPROD=  1.00D-09
                         THRSW=  1.00D-05  THROV=  1.00D-12  THRF12=   1.00D-08

 CPU time for 3-index integral evaluation         1.74 sec
 CPU time for first  half transformation          0.19 sec (10762.7 MFLOP/sec)
 CPU time for second half transformation          0.03 sec ( 2893.4 MFLOP/sec)
 CPU time for sorting                             0.16 sec
 CPU time for fitting                             0.04 sec (34826.3 MFLOP/sec)
 CPU time for tilde quantities                    0.06 sec (30814.7 MFLOP/sec)
 CPU time for assembly                            0.81 sec (28562.1 MFLOP/sec)
 CPU time for tranop_f12                          0.95 sec (32006.1 MFLOP/sec)
 CPU time for f12 integrals (total)               6.11 sec
 F12-matrices built in  3 passes.
 F12-matrices built in  3 passes.
 F12-matrices built in  3 passes.
 F12-matrices built in  3 passes.
 FC-matrix built in  3 passes.
 CPU time for f12 matrices (total)                0.49 sec

 Diagonal F12 approximation with fixed coefficients:  TSING= 0.500,  TTRIP= 0.250 (scaled by -1/beta)

 DF-MP2-F12 energy corrections:
 ------------------------------
 Approx.                                    Singlet             Triplet             Total
 DF-MP2-F12/3*C(DX,FIX)                -0.097504971037     -0.016950829063     -0.114455800100
 DF-MP2-F12/3*C(FIX)                   -0.079905058950     -0.013407871806     -0.093312930757
 DF-MP2-F12/3C(FIX)                    -0.080263449552     -0.013430824786     -0.093694274339

 DF-MP2-F12 correlation energies:
 --------------------------------
 Approx.                                    Singlet             Triplet             Ecorr            Total Energy
 DF-MP2                                -0.537339677711     -0.342775977268     -0.880115654978   -264.666026876149
 DF-MP2-F12/3*C(DX,FIX)                -0.634844648748     -0.359726806331     -0.994571455078   -264.780482676249
 DF-MP2-F12/3*C(FIX)                   -0.617244736661     -0.356183849074     -0.973428585735   -264.759339806906
 DF-MP2-F12/3C(FIX)                    -0.617603127263     -0.356206802054     -0.973809929317   -264.759721150488

 SCS-DF-MP2 energies (F_SING= 1.20000  F_TRIP= 0.62222  F_PARALLEL= 0.33333):
 ----------------------------------------------------------------------------
 SCS-DF-MP2                            -0.858090443553   -264.644001664724
 SCS-DF-MP2-F12/3*C(DX,FIX)            -0.985643591325   -264.771554812496
 SCS-DF-MP2-F12/3*C(FIX)               -0.962319190084   -264.748230411254
 SCS-DF-MP2-F12/3C(FIX)                -0.962763540661   -264.748674761831
 Symmetry transformation completed.

 Number of N-1 electron functions:              12
 Number of N-2 electron functions:              78
 Number of singly external CSFs:              2568
 Number of doubly external CSFs:           3298596
 Total number of CSFs:                     3301165

 Pair and operator lists are different

 Length of J-op  integral file:             474.22 MB
 Length of K-op  integral file:             572.29 MB
 Length of 3-ext integral record:             0.00 MB

 For full I/O caching in triples, increase memory by 50.81 Mwords to 151.09 Mwords.

 Integral transformation finished. Total CPU:  12.59 sec, npass=  1  Memory used:  87.46 MW

 Reference energy:                   -263.78591122

 Adding F12 terms to K(Cij), methodcc=6,  factor=1.0

 ITER.      SQ.NORM     CORR.ENERGY   TOTAL ENERGY   ENERGY CHANGE        DEN1      VAR(S)    VAR(P)  DIIS     TIME
   1      1.20176235    -0.86220227  -264.64811349     0.01792979     0.04638277  0.71D-02  0.55D-02  1  1    28.49
   2      1.21598741    -0.85801803  -264.64392925     0.00418424    -0.02004600  0.85D-04  0.58D-03  2  2    35.99
   3      1.22129810    -0.85811213  -264.64402335    -0.00009409    -0.00235183  0.13D-03  0.32D-04  3  3    43.76
   4      1.22406840    -0.85798704  -264.64389826     0.00012509    -0.00140055  0.74D-05  0.40D-05  4  4    51.98
   5      1.22508192    -0.85795004  -264.64386127     0.00003700    -0.00036150  0.54D-06  0.28D-06  5  5    59.87
   6      1.22524142    -0.85792360  -264.64383482     0.00002645    -0.00000787  0.39D-07  0.23D-07  6  6    67.86
   7      1.22527023    -0.85792122  -264.64383244     0.00000238    -0.00000613  0.25D-08  0.39D-08  6  4    75.86
   8      1.22527052    -0.85792074  -264.64383196     0.00000048     0.00000192  0.38D-09  0.26D-09  6  1    83.84
   9      1.22527113    -0.85792080  -264.64383202    -0.00000007     0.00000055  0.25D-10  0.21D-10  6  2    91.87

 Norm of t1 vector:      0.10538182      S-energy:     0.00000004      T1 diagnostic:  0.01521056
                                                                       D1 diagnostic:  0.04464270

 Adding energy correction from Wij-K(Fij), methodcc=6  factor=1.0
 
  CCSD correlation energy              -0.857920803423
  MP2-F12 correction (uncoupled)       -0.092542590437
  C*T doubles correction               -0.001473690591
  f12b correction                       0.015403123071


 Total CPU time for triples:    209.39 sec


 RESULTS
 =======

  Reference energy                   -263.769950127090
  F12 singles correction               -0.015961094081

 F12 singles corrections added to reference energy

  New reference energy               -263.785911221171

  F12a singlet correction              -0.080466150399
  F12a triplet correction              -0.013550130629
  F12a total correction                -0.094016281028

 F12a corrections for ansatz F12/3C(FIX) added to CCSD energy
 
  CCSD-F12a singlet pair energy        -0.641549625676
  CCSD-F12a triplet pair energy        -0.310387499235
  CCSD-F12a correlation energy         -0.951937084451

  Triples (T) contribution             -0.037510226855
  Total correlation energy             -0.989447311307

  CCSD-F12a total energy             -264.737848305622
  CCSD[T]-F12a energy                -264.777875440267
  CCSD-T-F12a energy                 -264.774428765580
 !CCSD(T)-F12a total energy          -264.775358532477

 F12b corrections for ansatz F12/3C(FIX) added to CCSD(T)-F12a energy

  CCSD-F12b singlet pair energy        -0.627370399040
  CCSD-F12b triplet pair energy        -0.309163602800
  CCSD-F12b correlation energy         -0.936533961380

  Triples (T) contribution             -0.037510226855
  Total correlation energy             -0.974044188235

  CCSD-F12b total energy             -264.722445182550
  CCSD[T]-F12b energy                -264.762472317196
  CCSD-T-F12b energy                 -264.759025642508
 !CCSD(T)-F12b total energy          -264.759955409406

 Timing summary (sec):

 STEP                 CPU(USER)    SYS     CPU(TOT)    WALL
 Transformation         12.70      1.12     13.82     13.82
 CCSD iterations        70.92      3.34     74.26     74.22
 Triples               209.39      2.09    211.48    211.37
 MP2-F12                 8.28      1.11      9.39      9.39
 F12b energy             4.72      0.04      4.76      4.76

 Program statistics:

 Available memory in ccsd:                99998934
 Min. memory needed in ccsd:               8644845
 Max. memory used in ccsd:                11598633
 Max. memory used in cckext:               8768967 (10 integral passes)



 **********************************************************************************************************************************
 DATASETS  * FILE   NREC   LENGTH (MB)   RECORD NAMES
              1      20      527.84       500      610      700      900      950      970     1000      129      960     1100   
                                          VAR    BASINP    GEOM    SYMINP    ZMAT    AOBASIS   BASIS     P2S    ABASIS      S 
                                         1400     1410     1200     1210     1080     1600     1650     1700      960(1)  1380   
                                           T        V       H0       H01     AOSYM     SMH    MOLCAS    OPER    ABASIS    JKOP   

              2       5        2.50       700     1000     2100     7360     7350   
                                         GEOM     BASIS     RHF    F12ABS    EF12   

 PROGRAMS   *        TOTAL   CCSD(T)        HF       INT
 CPU TIMES  *       319.71    306.25      7.60      5.78
 REAL TIME  *       328.75 SEC
 DISK USED  *         2.35 GB      
 SF USED    *         1.91 GB      
 GA USED    *         2.40 MB       (max)       0.00 MB       (current)
 **********************************************************************************************************************************

     CCSD(T)-F12        HF-SCF  
   -264.75995541   -263.76995013
 **********************************************************************************************************************************
 Variable memory released
