
 Primary working directories    : /scratch/kee
 Secondary working directories  : /scratch/kee
 Wavefunction directory         : /home/kee/wfu/
 Main file repository           : /scratch/kee/

 ARCHNAME  : Linux/x86_64
 FC        : /opt/intel/composer_xe_2015.0.090/bin/intel64/ifort
 FCVERSION : 15.0.0
 BLASLIB   : -L/opt/intel/mkl/lib/intel64 -lmkl_intel_ilp64 -lmkl_sequential -lmkl_core
 id        : emory

 Nodes     nprocs
 node20       3
 Number of processes for MPI-2 version of Molpro:   nprocs(total)=    4   nprocs(compute)=    3   nprocs(helper)=    1
 ga_uses_ma=false, calling ma_init with nominal heap.
 GA-space will be limited to   8.0 MW (determined by -G option)

 Using customized tuning parameters: mindgm=7; mindgv=32; mindgc=1; mindgr=1; noblas=0; mincuda=1000; minvec=7
 default implementation of scratch files=sf  

 ***,co2h2o
 memory,100,m
 basis avtz
 geomtype = xyz
 geometry = {
 6
       0.00000000
 O     0.00032100    1.15989800    0.00000000
 O     0.00041400   -1.15989400    0.00000000
 O     7.66554788    5.61845061    2.01533604
 H     8.45710240    5.92740626    1.57298740
 H     7.97953369    5.13982286    2.78345827
 C     0.01953800    0.00000300    0.00000000
 }
 hf
 ccsd(t)-f12
 ---

 Variables initialized (665), CPU time= 0.01 sec
 Commands  initialized (462), CPU time= 0.00 sec, 486 directives.
 Default parameters read. Elapsed time= 0.03 sec

 Checking input...
 Passed
1


                                         ***  PROGRAM SYSTEM MOLPRO  ***
                         Copyright, University College Cardiff Consultants Limited, 2008

                                    Version 2010.1 linked 9 Dec 2014 15:06:28 


 **********************************************************************************************************************************
 LABEL *   co2h2o                                                                        
 Linux-2.6.32-504.el6.x86_64/node20(x86_64) 64 bit mpp version                           DATE: 15-Dec-16          TIME: 00:49:50  
 **********************************************************************************************************************************

 Patch level:      19
 **********************************************************************************************************************************

 Variable memory set to  100000000 words,  buffer space   230000 words

 SETTING BASIS          =    AVTZ
 SETTING GEOMTYPE       =    XYZ

Geometry recognized as XYZ



 Recomputing integrals since basis changed


 Using spherical harmonics

 Library entry O      S aug-cc-pVTZ          selected for orbital group  1
 Library entry O      P aug-cc-pVTZ          selected for orbital group  1
 Library entry O      D aug-cc-pVTZ          selected for orbital group  1
 Library entry O      F aug-cc-pVTZ          selected for orbital group  1
 Library entry H      S aug-cc-pVTZ          selected for orbital group  2
 Library entry H      P aug-cc-pVTZ          selected for orbital group  2
 Library entry H      D aug-cc-pVTZ          selected for orbital group  2
 Library entry C      S aug-cc-pVTZ          selected for orbital group  3
 Library entry C      P aug-cc-pVTZ          selected for orbital group  3
 Library entry C      D aug-cc-pVTZ          selected for orbital group  3
 Library entry C      F aug-cc-pVTZ          selected for orbital group  3

1PROGRAM * SEWARD (Integral evaluation for generally contracted gaussian basis sets)     Author: Roland Lindh, 1990

 Geometry written to block  1 of record 700


 Point group  C1  



 ATOMIC COORDINATES

 NR  ATOM    CHARGE       X              Y              Z

   1  O       8.00    0.000606602    2.191889560    0.000000000
   2  O       8.00    0.000782347   -2.191882001    0.000000000
   3  O       8.00   14.485786140   10.617332936    3.808433178
   4  H       1.00   15.981607401   11.201174501    2.972515394
   5  H       1.00   15.079133331    9.712857569    5.259973829
   6  C       6.00    0.036921469    0.000005669    0.000000000

 Bond lengths in Bohr (Angstrom)

 1-6  2.192184701  2-6  2.192185575  3-4  1.810279194  3-5  1.810278110
     (1.160054182)     (1.160054644)     (0.957958491)     (0.957957918)

 Bond angles

  1-6-2  178.10622893   4-3-5  105.10354935

 NUCLEAR CHARGE:                   32
 NUMBER OF PRIMITIVE AOS:         322
 NUMBER OF SYMMETRY AOS:          282
 NUMBER OF CONTRACTIONS:          230   ( 230A   )
 NUMBER OF CORE ORBITALS:           4   (   4A   )
 NUMBER OF VALENCE ORBITALS:       18   (  18A   )


 NUCLEAR REPULSION ENERGY   79.45889351


 Eigenvalues of metric

         1 0.347E-03 0.382E-03 0.392E-03 0.420E-03 0.896E-03 0.914E-03 0.167E-02 0.174E-02


 Contracted 2-electron integrals neglected if value below      1.0D-11
 AO integral compression algorithm  1   Integral accuracy      1.0D-11

     430.703 MB (compressed) written to integral file ( 20.5%)

     Node minimum: 131.072 MB, node maximum: 160.170 MB


 NUMBER OF SORTED TWO-ELECTRON INTEGRALS:  117629820.     BUFFER LENGTH:  32768
 NUMBER OF SEGMENTS:   8  SEGMENT LENGTH:   15997437      RECORD LENGTH: 524288

 Memory used in sort:      16.55 MW

 SORT1 READ   262375993. AND WROTE    29983130. INTEGRALS IN     89 RECORDS. CPU TIME:     2.38 SEC, REAL TIME:     2.71 SEC
 SORT2 READ    89466633. AND WROTE   352862895. INTEGRALS IN   1833 RECORDS. CPU TIME:     1.07 SEC, REAL TIME:     1.35 SEC

 Node minimum:   117612110.  Node maximum:   117629820. integrals

 OPERATOR DM      FOR CENTER  0  COORDINATES:    0.000000    0.000000    0.000000


 **********************************************************************************************************************************
 DATASETS  * FILE   NREC   LENGTH (MB)   RECORD NAMES
              1      18        4.62       500      610      700      900      950      970     1000      129      960     1100   
                                          VAR    BASINP    GEOM    SYMINP    ZMAT    AOBASIS   BASIS     P2S    ABASIS      S 
                                         1400     1410     1200     1210     1080     1600     1650     1700   
                                           T        V       H0       H01     AOSYM     SMH    MOLCAS    OPER   

 PROGRAMS   *        TOTAL       INT
 CPU TIMES  *         6.05      5.98
 REAL TIME  *         6.85 SEC
 DISK USED  *         1.47 GB      
 GA USED    *         0.00 MB       (max)       0.00 MB       (current)
 **********************************************************************************************************************************

1PROGRAM * RHF-SCF (CLOSED SHELL)       Authors: W. Meyer, H.-J. Werner


 NUMBER OF ELECTRONS:      16+   16-    SPACE SYMMETRY=1    SPIN SYMMETRY=Singlet 
 CONVERGENCE THRESHOLDS:    1.00E-05 (Density)    1.00E-07 (Energy)
 MAX. NUMBER OF ITERATIONS:       60
 INTERPOLATION TYPE:            DIIS
 INTERPOLATION STEPS:              2 (START)      1 (STEP)
 LEVEL SHIFTS:                  0.00 (CLOSED)  0.00 (OPEN) 



 Orbital guess generated from atomic densities. Full valence occupancy:   22

 Molecular orbital dump at record        2100.2

 ITERATION    DDIFF          GRAD             ENERGY        2-EL.EN.            DIPOLE MOMENTS         DIIS
    1      0.000D+00      0.000D+00      -263.66132246    354.438014    1.12568   -0.16409    0.31507    0
    2      0.000D+00      0.468D-02      -263.72652329    349.869684    0.64560   -0.08991    0.18694    1
    3      0.749D-02      0.317D-02      -263.76939667    352.424372    0.76620   -0.10938    0.21735    2
    4      0.307D-02      0.296D-03      -263.76988498    352.210923    0.76926   -0.10906    0.21860    3
    5      0.356D-03      0.858D-04      -263.76994139    352.215000    0.76417   -0.10894    0.21708    4
    6      0.132D-03      0.344D-04      -263.76994826    352.228735    0.76478   -0.10863    0.21731    5
    7      0.433D-04      0.851D-05      -263.76994896    352.220549    0.76436   -0.10877    0.21718    6
    8      0.141D-04      0.191D-05      -263.76994901    352.221785    0.76436   -0.10862    0.21718    7
    9      0.383D-05      0.836D-06      -263.76994901    352.221644    0.76434   -0.10875    0.21717    0

 Final occupancy:  16

 !RHF STATE 1.1 Energy               -263.769949012524
 Nuclear energy                        79.45889351
 One-electron energy                 -519.33966432
 Two-electron energy                  176.11082180
 Virial quotient                       -1.00173751
 !RHF STATE 1.1 Dipole moment           0.76433629    -0.10875125     0.21717341
 Dipole moment /Debye                   1.94262184    -0.27640001     0.55196360

 Orbital energies:

         1.1          2.1          3.1          4.1          5.1          6.1          7.1          8.1          9.1         10.1
    -20.651269   -20.651077   -20.567148   -11.459292    -1.530579    -1.477456    -1.352892    -0.799353    -0.742220    -0.718679

        11.1         12.1         13.1         14.1         15.1         16.1         17.1         18.1
     -0.714378    -0.714362    -0.583730    -0.543198    -0.543169    -0.510210     0.029026     0.046515


 **********************************************************************************************************************************
 DATASETS  * FILE   NREC   LENGTH (MB)   RECORD NAMES
              1      18        4.62       500      610      700      900      950      970     1000      129      960     1100   
                                          VAR    BASINP    GEOM    SYMINP    ZMAT    AOBASIS   BASIS     P2S    ABASIS      S 
                                         1400     1410     1200     1210     1080     1600     1650     1700   
                                           T        V       H0       H01     AOSYM     SMH    MOLCAS    OPER   

              2       3        1.44       700     1000     2100   
                                         GEOM     BASIS     RHF  

 PROGRAMS   *        TOTAL        HF       INT
 CPU TIMES  *        14.09      8.04      5.98
 REAL TIME  *        15.12 SEC
 DISK USED  *         1.50 GB      
 SF USED    *         0.21 MB      
 GA USED    *         0.00 MB       (max)       0.00 MB       (current)
 **********************************************************************************************************************************


1PROGRAM * CCSD (Closed-shell coupled cluster)     Authors: C. Hampel, H.-J. Werner, 1991, M. Deegan, P.J. Knowles, 1992

                                  CCSD-F12 implementation by  H.-J. Werner, 2007

                   Density fitting integral evaluation by F.R. Manby, 2003,2007, G. Knizia, 2010

 Basis set CC-PVTZ/JKFIT generated.      Number of basis functions:   376 
 Basis set AUG-CC-PVTZ/MP2FIT generated. Number of basis functions:   516 

 Convergence thresholds:  THRVAR = 1.00D-08  THRDEN = 1.00D-06

 CCSD(T)     terms to be evaluated (factor= 1.000)


 Number of core orbitals:           4 (   4 )
 Number of closed-shell orbitals:  12 (  12 )
 Number of external orbitals:     214 ( 214 )

 Molecular orbitals read from record     2100.2  Type=RHF/CANONICAL (state 1.1)

 MP2-F12 correlation treatment (H.-J. Werner, 2006)
 --------------------------------------------------

 Using MP2-F12 with ansatz 3C(FIX)

 Using projected zeroth-order Hamiltonian (+Z)

 FOCKRIB=T FOCKRIC=T FOCKRIP=T CABSP=T CABSA=T CABSK=T CABSF=T GBC=F EBC=F DMAT=T NOFIK=T NOPAO=1 SOLVE=-1  USEPAO=0
 EXCH_A= T EXCH_B= F EXCH_C= F EXCH_P= F
 
 Geminal basis:    OPTFULL  GEM_TYPE=SLATER  BETA=1.0  NGEM=6

 Optimizing Gaussian exponents for each gem_beta

 Geminal optimization for beta= 1.0000
 Weight function:   m=0, omega= 1.4646

 Augmented Hessian optimization of geminal fit. Trust ratio= 0.40000
 Convergence reached after   2 iterations. Final gradient= 8.24D-16, Step= 4.32D-06, Delta= 1.28D-09
 
 Alpha:                 0.19532     0.81920     2.85917     9.50073    35.69989   197.79328
 Coeff:                 0.27070     0.30552     0.18297     0.10986     0.06810     0.04224
 

 All pairs explicitly correlated. Number of r12-pairs:           78
 
 AO(A)-basis ORBITAL           loaded. Number of functions:     230
 RI(R)-basis CC-PVTZ/JKFIT     loaded. Number of functions:     376
 DF-basis CC-PVTZ/JKFIT        loaded. Number of functions:     376

 Screening thresholds:   THRAO=  1.00D-10  THRMO=  1.00D-09  THRPROD=  1.00D-09
                         THRSW=  1.00D-05  THROV=  1.00D-12  THRF12=   1.00D-08

 CPU time for Fock operators                      0.93 sec
 
 Construction of ABS:
 Smallest eigenvalue of S          2.57E-04  (threshold= 1.00E-08)
 Ratio eigmin/eigmax               1.83E-06  (threshold= 1.00E-09)
 Smallest eigenvalue of S kept     2.57E-04  (threshold= 2.57E-04, 0 functions deleted, 376 kept)
 
 Construction of CABS:
 Smallest eigenvalue of S          2.29E-08  (threshold= 1.00E-08)
 Ratio eigmin/eigmax               2.29E-08  (threshold= 1.00E-09)
 Smallest eigenvalue of S kept     2.29E-08  (threshold= 2.29E-08, 0 functions deleted, 376 kept)
 
 CPU time for CABS singles                        0.16 sec

 CABS-singles contribution of  -0.01596110 patched into reference energy.
 New reference energy        -263.78591011
 
 AO(A)-basis ORBITAL           loaded. Number of functions:     230
 RI(R)-basis CC-PVTZ/JKFIT     loaded. Number of functions:     376
 DF-basis AUG-CC-PVTZ/MP2FIT   loaded. Number of functions:     516

 Screening thresholds:   THRAO=  1.00D-10  THRMO=  1.00D-09  THRPROD=  1.00D-09
                         THRSW=  1.00D-05  THROV=  1.00D-12  THRF12=   1.00D-08

 CPU time for 3-index integral evaluation         1.77 sec
 CPU time for first  half transformation          0.17 sec (11814.9 MFLOP/sec)
 CPU time for second half transformation          0.03 sec ( 3034.5 MFLOP/sec)
 CPU time for sorting                             0.12 sec
 CPU time for fitting                             0.07 sec (19900.7 MFLOP/sec)
 CPU time for tilde quantities                    0.07 sec (26412.6 MFLOP/sec)
 CPU time for assembly                            0.80 sec (29541.9 MFLOP/sec)
 CPU time for tranop_f12                          0.94 sec (31634.3 MFLOP/sec)
 CPU time for f12 integrals (total)               6.11 sec
 F12-matrices built in  3 passes.
 F12-matrices built in  3 passes.
 F12-matrices built in  3 passes.
 F12-matrices built in  3 passes.
 FC-matrix built in  3 passes.
 CPU time for f12 matrices (total)                0.52 sec

 Diagonal F12 approximation with fixed coefficients:  TSING= 0.500,  TTRIP= 0.250 (scaled by -1/beta)

 DF-MP2-F12 energy corrections:
 ------------------------------
 Approx.                                    Singlet             Triplet             Total
 DF-MP2-F12/3*C(DX,FIX)                -0.097504924470     -0.016950820217     -0.114455744687
 DF-MP2-F12/3*C(FIX)                   -0.079905016678     -0.013407859710     -0.093312876388
 DF-MP2-F12/3C(FIX)                    -0.080263408417     -0.013430814211     -0.093694222628

 DF-MP2-F12 correlation energies:
 --------------------------------
 Approx.                                    Singlet             Triplet             Ecorr            Total Energy
 DF-MP2                                -0.537339923702     -0.342776279746     -0.880116203448   -264.666026317699
 DF-MP2-F12/3*C(DX,FIX)                -0.634844848172     -0.359727099963     -0.994571948134   -264.780482062385
 DF-MP2-F12/3*C(FIX)                   -0.617244940379     -0.356184139456     -0.973429079836   -264.759339194087
 DF-MP2-F12/3C(FIX)                    -0.617603332119     -0.356207093958     -0.973810426076   -264.759720540327

 SCS-DF-MP2 energies (F_SING= 1.20000  F_TRIP= 0.62222  F_PARALLEL= 0.33333):
 ----------------------------------------------------------------------------
 SCS-DF-MP2                            -0.858090926951   -264.644001041202
 SCS-DF-MP2-F12/3*C(DX,FIX)            -0.985644013338   -264.771554127589
 SCS-DF-MP2-F12/3*C(FIX)               -0.962319615228   -264.748229729479
 SCS-DF-MP2-F12/3C(FIX)                -0.962763968116   -264.748674082367
 Symmetry transformation completed.

 Number of N-1 electron functions:              12
 Number of N-2 electron functions:              78
 Number of singly external CSFs:              2568
 Number of doubly external CSFs:           3298596
 Total number of CSFs:                     3301165

 Pair and operator lists are different

 Length of J-op  integral file:             474.22 MB
 Length of K-op  integral file:             572.29 MB
 Length of 3-ext integral record:             0.00 MB

 For full I/O caching in triples, increase memory by 50.81 Mwords to 151.09 Mwords.

 Integral transformation finished. Total CPU:  13.41 sec, npass=  1  Memory used:  87.46 MW

 Reference energy:                   -263.78591011

 Adding F12 terms to K(Cij), methodcc=6,  factor=1.0

 ITER.      SQ.NORM     CORR.ENERGY   TOTAL ENERGY   ENERGY CHANGE        DEN1      VAR(S)    VAR(P)  DIIS     TIME
   1      1.20176255    -0.86220272  -264.64811284     0.01792988     0.04638294  0.71D-02  0.55D-02  1  1    29.52
   2      1.21598764    -0.85801846  -264.64392858     0.00418426    -0.02004605  0.85D-04  0.58D-03  2  2    37.18
   3      1.22129834    -0.85811256  -264.64402267    -0.00009409    -0.00235183  0.13D-03  0.32D-04  3  3    45.32
   4      1.22406864    -0.85798747  -264.64389758     0.00012509    -0.00140055  0.74D-05  0.40D-05  4  4    53.41
   5      1.22508216    -0.85795047  -264.64386059     0.00003700    -0.00036150  0.54D-06  0.28D-06  5  5    61.26
   6      1.22524166    -0.85792402  -264.64383414     0.00002645    -0.00000787  0.39D-07  0.23D-07  6  6    69.21
   7      1.22527047    -0.85792165  -264.64383176     0.00000238    -0.00000613  0.25D-08  0.39D-08  6  4    77.20
   8      1.22527076    -0.85792117  -264.64383128     0.00000048     0.00000192  0.38D-09  0.26D-09  6  1    85.20
   9      1.22527137    -0.85792123  -264.64383135    -0.00000007     0.00000055  0.25D-10  0.21D-10  6  2    93.17

 Norm of t1 vector:      0.10538188      S-energy:     0.00000005      T1 diagnostic:  0.01521056
                                                                       D1 diagnostic:  0.04464273

 Adding energy correction from Wij-K(Fij), methodcc=6  factor=1.0
 
  CCSD correlation energy              -0.857921233127
  MP2-F12 correction (uncoupled)       -0.092542534378
  C*T doubles correction               -0.001473691235
  f12b correction                       0.015403122651


 Total CPU time for triples:    215.79 sec


 RESULTS
 =======

  Reference energy                   -263.769949012524
  F12 singles correction               -0.015961101727

 F12 singles corrections added to reference energy

  New reference energy               -263.785910114251

  F12a singlet correction              -0.080466107152
  F12a triplet correction              -0.013550118461
  F12a total correction                -0.094016225612

 F12a corrections for ansatz F12/3C(FIX) added to CCSD energy
 
  CCSD-F12a singlet pair energy        -0.641549795840
  CCSD-F12a triplet pair energy        -0.310387709095
  CCSD-F12a correlation energy         -0.951937458739

  Triples (T) contribution             -0.037510304458
  Total correlation energy             -0.989447763197

  CCSD-F12a total energy             -264.737847572990
  CCSD[T]-F12a energy                -264.777874794035
  CCSD-T-F12a energy                 -264.774428107199
 !CCSD(T)-F12a total energy          -264.775357877448

 F12b corrections for ansatz F12/3C(FIX) added to CCSD(T)-F12a energy

  CCSD-F12b singlet pair energy        -0.627370569871
  CCSD-F12b triplet pair energy        -0.309163812413
  CCSD-F12b correlation energy         -0.936534336088

  Triples (T) contribution             -0.037510304458
  Total correlation energy             -0.974044640546

  CCSD-F12b total energy             -264.722444450339
  CCSD[T]-F12b energy                -264.762471671384
  CCSD-T-F12b energy                 -264.759024984548
 !CCSD(T)-F12b total energy          -264.759954754797

 Timing summary (sec):

 STEP                 CPU(USER)    SYS     CPU(TOT)    WALL
 Transformation         13.52      1.15     14.67     14.72
 CCSD iterations        71.36      2.88     74.24     74.94
 Triples               215.79      2.44    218.23    218.21
 MP2-F12                 8.31      1.26      9.57      9.58
 F12b energy             4.81      0.05      4.86      4.85

 Program statistics:

 Available memory in ccsd:                99998934
 Min. memory needed in ccsd:               8644845
 Max. memory used in ccsd:                11598633
 Max. memory used in cckext:               8768967 (10 integral passes)



 **********************************************************************************************************************************
 DATASETS  * FILE   NREC   LENGTH (MB)   RECORD NAMES
              1      20      527.84       500      610      700      900      950      970     1000      129      960     1100   
                                          VAR    BASINP    GEOM    SYMINP    ZMAT    AOBASIS   BASIS     P2S    ABASIS      S 
                                         1400     1410     1200     1210     1080     1600     1650     1700      960(1)  1380   
                                           T        V       H0       H01     AOSYM     SMH    MOLCAS    OPER    ABASIS    JKOP   

              2       5        2.50       700     1000     2100     7360     7350   
                                         GEOM     BASIS     RHF    F12ABS    EF12   

 PROGRAMS   *        TOTAL   CCSD(T)        HF       INT
 CPU TIMES  *       328.09    313.99      8.04      5.98
 REAL TIME  *       337.81 SEC
 DISK USED  *         2.37 GB      
 SF USED    *         1.91 GB      
 GA USED    *         2.40 MB       (max)       0.00 MB       (current)
 **********************************************************************************************************************************

     CCSD(T)-F12        HF-SCF  
   -264.75995475   -263.76994901
 **********************************************************************************************************************************
 Variable memory released
