
 Primary working directories    : /scratch/kee
 Secondary working directories  : /scratch/kee
 Wavefunction directory         : /home/kee/wfu/
 Main file repository           : /scratch/kee/

 ARCHNAME  : Linux/x86_64
 FC        : /opt/intel/composer_xe_2015.0.090/bin/intel64/ifort
 FCVERSION : 15.0.0
 BLASLIB   : -L/opt/intel/mkl/lib/intel64 -lmkl_intel_ilp64 -lmkl_sequential -lmkl_core
 id        : emory

 Nodes     nprocs
 node20       3
 Number of processes for MPI-2 version of Molpro:   nprocs(total)=    4   nprocs(compute)=    3   nprocs(helper)=    1
 ga_uses_ma=false, calling ma_init with nominal heap.
 GA-space will be limited to   8.0 MW (determined by -G option)

 Using customized tuning parameters: mindgm=7; mindgv=32; mindgc=1; mindgr=1; noblas=0; mincuda=1000; minvec=7
 default implementation of scratch files=sf  

 ***,co2h2o
 memory,100,m
 basis avtz
 geomtype = xyz
 geometry = {
 6
       0.00000000
 O     0.00032100    1.15989800    0.00000000
 O     0.00041400   -1.15989400    0.00000000
 O     7.62613546    5.58948954    2.00494771
 H     8.41768997    5.89844518    1.56259907
 H     7.94012127    5.11086179    2.77306994
 C     0.01953800    0.00000300    0.00000000
 }
 hf
 ccsd(t)-f12
 ---

 Variables initialized (665), CPU time= 0.01 sec
 Commands  initialized (462), CPU time= 0.00 sec, 486 directives.
 Default parameters read. Elapsed time= 0.03 sec

 Checking input...
 Passed
1


                                         ***  PROGRAM SYSTEM MOLPRO  ***
                         Copyright, University College Cardiff Consultants Limited, 2008

                                    Version 2010.1 linked 9 Dec 2014 15:06:28 


 **********************************************************************************************************************************
 LABEL *   co2h2o                                                                        
 Linux-2.6.32-504.el6.x86_64/node20(x86_64) 64 bit mpp version                           DATE: 15-Dec-16          TIME: 00:44:16  
 **********************************************************************************************************************************

 Patch level:      19
 **********************************************************************************************************************************

 Variable memory set to  100000000 words,  buffer space   230000 words

 SETTING BASIS          =    AVTZ
 SETTING GEOMTYPE       =    XYZ

Geometry recognized as XYZ



 Recomputing integrals since basis changed


 Using spherical harmonics

 Library entry O      S aug-cc-pVTZ          selected for orbital group  1
 Library entry O      P aug-cc-pVTZ          selected for orbital group  1
 Library entry O      D aug-cc-pVTZ          selected for orbital group  1
 Library entry O      F aug-cc-pVTZ          selected for orbital group  1
 Library entry H      S aug-cc-pVTZ          selected for orbital group  2
 Library entry H      P aug-cc-pVTZ          selected for orbital group  2
 Library entry H      D aug-cc-pVTZ          selected for orbital group  2
 Library entry C      S aug-cc-pVTZ          selected for orbital group  3
 Library entry C      P aug-cc-pVTZ          selected for orbital group  3
 Library entry C      D aug-cc-pVTZ          selected for orbital group  3
 Library entry C      F aug-cc-pVTZ          selected for orbital group  3

1PROGRAM * SEWARD (Integral evaluation for generally contracted gaussian basis sets)     Author: Roland Lindh, 1990

 Geometry written to block  1 of record 700


 Point group  C1  



 ATOMIC COORDINATES

 NR  ATOM    CHARGE       X              Y              Z

   1  O       8.00    0.000606602    2.191889560    0.000000000
   2  O       8.00    0.000782347   -2.191882001    0.000000000
   3  O       8.00   14.411307461   10.562604445    3.788802080
   4  H       1.00   15.907128703   11.146445991    2.952884296
   5  H       1.00   15.004654651    9.658129079    5.240342730
   6  C       6.00    0.036921469    0.000005669    0.000000000

 Bond lengths in Bohr (Angstrom)

 1-6  2.192184701  2-6  2.192185575  3-4  1.810279172  3-5  1.810278110
     (1.160054182)     (1.160054644)     (0.957958480)     (0.957957918)

 Bond angles

  1-6-2  178.10622893   4-3-5  105.10354942

 NUCLEAR CHARGE:                   32
 NUMBER OF PRIMITIVE AOS:         322
 NUMBER OF SYMMETRY AOS:          282
 NUMBER OF CONTRACTIONS:          230   ( 230A   )
 NUMBER OF CORE ORBITALS:           4   (   4A   )
 NUMBER OF VALENCE ORBITALS:       18   (  18A   )


 NUCLEAR REPULSION ENERGY   79.51979941


 Eigenvalues of metric

         1 0.347E-03 0.382E-03 0.392E-03 0.420E-03 0.896E-03 0.914E-03 0.167E-02 0.174E-02


 Contracted 2-electron integrals neglected if value below      1.0D-11
 AO integral compression algorithm  1   Integral accuracy      1.0D-11

     432.275 MB (compressed) written to integral file ( 20.5%)

     Node minimum: 137.626 MB, node maximum: 153.092 MB


 NUMBER OF SORTED TWO-ELECTRON INTEGRALS:  117629820.     BUFFER LENGTH:  32768
 NUMBER OF SEGMENTS:   8  SEGMENT LENGTH:   15997437      RECORD LENGTH: 524288

 Memory used in sort:      16.55 MW

 SORT1 READ   264388711. AND WROTE    30107902. INTEGRALS IN     89 RECORDS. CPU TIME:     2.34 SEC, REAL TIME:     2.70 SEC
 SORT2 READ    89845045. AND WROTE   352862895. INTEGRALS IN   1575 RECORDS. CPU TIME:     0.96 SEC, REAL TIME:     1.25 SEC

 Node minimum:   117612110.  Node maximum:   117629820. integrals

 OPERATOR DM      FOR CENTER  0  COORDINATES:    0.000000    0.000000    0.000000


 **********************************************************************************************************************************
 DATASETS  * FILE   NREC   LENGTH (MB)   RECORD NAMES
              1      18        4.62       500      610      700      900      950      970     1000      129      960     1100   
                                          VAR    BASINP    GEOM    SYMINP    ZMAT    AOBASIS   BASIS     P2S    ABASIS      S 
                                         1400     1410     1200     1210     1080     1600     1650     1700   
                                           T        V       H0       H01     AOSYM     SMH    MOLCAS    OPER   

 PROGRAMS   *        TOTAL       INT
 CPU TIMES  *         6.07      6.00
 REAL TIME  *         6.90 SEC
 DISK USED  *         1.46 GB      
 GA USED    *         0.00 MB       (max)       0.00 MB       (current)
 **********************************************************************************************************************************

1PROGRAM * RHF-SCF (CLOSED SHELL)       Authors: W. Meyer, H.-J. Werner


 NUMBER OF ELECTRONS:      16+   16-    SPACE SYMMETRY=1    SPIN SYMMETRY=Singlet 
 CONVERGENCE THRESHOLDS:    1.00E-05 (Density)    1.00E-07 (Energy)
 MAX. NUMBER OF ITERATIONS:       60
 INTERPOLATION TYPE:            DIIS
 INTERPOLATION STEPS:              2 (START)      1 (STEP)
 LEVEL SHIFTS:                  0.00 (CLOSED)  0.00 (OPEN) 



 Orbital guess generated from atomic densities. Full valence occupancy:   22

 Molecular orbital dump at record        2100.2

 ITERATION    DDIFF          GRAD             ENERGY        2-EL.EN.            DIPOLE MOMENTS         DIIS
    1      0.000D+00      0.000D+00      -263.66132148    354.560952    1.12568   -0.16409    0.31507    0
    2      0.000D+00      0.468D-02      -263.72652248    349.992179    0.64562   -0.08979    0.18694    1
    3      0.749D-02      0.317D-02      -263.76939628    352.546976    0.76622   -0.10932    0.21735    2
    4      0.307D-02      0.296D-03      -263.76988459    352.333530    0.76928   -0.10898    0.21860    3
    5      0.356D-03      0.858D-04      -263.76994100    352.337603    0.76419   -0.10887    0.21708    4
    6      0.132D-03      0.344D-04      -263.76994787    352.351337    0.76480   -0.10856    0.21731    5
    7      0.433D-04      0.851D-05      -263.76994857    352.343152    0.76438   -0.10870    0.21718    6
    8      0.141D-04      0.191D-05      -263.76994862    352.344386    0.76438   -0.10855    0.21718    7
    9      0.383D-05      0.841D-06      -263.76994862    352.344246    0.76436   -0.10868    0.21717    0

 Final occupancy:  16

 !RHF STATE 1.1 Energy               -263.769948623981
 Nuclear energy                        79.51979941
 One-electron energy                 -519.46187128
 Two-electron energy                  176.17212325
 Virial quotient                       -1.00173751
 !RHF STATE 1.1 Dipole moment           0.76435636    -0.10868310     0.21717361
 Dipole moment /Debye                   1.94267284    -0.27622679     0.55196409

 Orbital energies:

         1.1          2.1          3.1          4.1          5.1          6.1          7.1          8.1          9.1         10.1
    -20.651252   -20.651058   -20.567149   -11.459273    -1.530561    -1.477437    -1.352893    -0.799334    -0.742201    -0.718680

        11.1         12.1         13.1         14.1         15.1         16.1         17.1         18.1
     -0.714360    -0.714344    -0.583731    -0.543179    -0.543150    -0.510211     0.029008     0.046487


 **********************************************************************************************************************************
 DATASETS  * FILE   NREC   LENGTH (MB)   RECORD NAMES
              1      18        4.62       500      610      700      900      950      970     1000      129      960     1100   
                                          VAR    BASINP    GEOM    SYMINP    ZMAT    AOBASIS   BASIS     P2S    ABASIS      S 
                                         1400     1410     1200     1210     1080     1600     1650     1700   
                                           T        V       H0       H01     AOSYM     SMH    MOLCAS    OPER   

              2       3        1.44       700     1000     2100   
                                         GEOM     BASIS     RHF  

 PROGRAMS   *        TOTAL        HF       INT
 CPU TIMES  *        13.97      7.90      6.00
 REAL TIME  *        15.02 SEC
 DISK USED  *         1.50 GB      
 SF USED    *         0.21 MB      
 GA USED    *         0.00 MB       (max)       0.00 MB       (current)
 **********************************************************************************************************************************


1PROGRAM * CCSD (Closed-shell coupled cluster)     Authors: C. Hampel, H.-J. Werner, 1991, M. Deegan, P.J. Knowles, 1992

                                  CCSD-F12 implementation by  H.-J. Werner, 2007

                   Density fitting integral evaluation by F.R. Manby, 2003,2007, G. Knizia, 2010

 Basis set CC-PVTZ/JKFIT generated.      Number of basis functions:   376 
 Basis set AUG-CC-PVTZ/MP2FIT generated. Number of basis functions:   516 

 Convergence thresholds:  THRVAR = 1.00D-08  THRDEN = 1.00D-06

 CCSD(T)     terms to be evaluated (factor= 1.000)


 Number of core orbitals:           4 (   4 )
 Number of closed-shell orbitals:  12 (  12 )
 Number of external orbitals:     214 ( 214 )

 Molecular orbitals read from record     2100.2  Type=RHF/CANONICAL (state 1.1)

 MP2-F12 correlation treatment (H.-J. Werner, 2006)
 --------------------------------------------------

 Using MP2-F12 with ansatz 3C(FIX)

 Using projected zeroth-order Hamiltonian (+Z)

 FOCKRIB=T FOCKRIC=T FOCKRIP=T CABSP=T CABSA=T CABSK=T CABSF=T GBC=F EBC=F DMAT=T NOFIK=T NOPAO=1 SOLVE=-1  USEPAO=0
 EXCH_A= T EXCH_B= F EXCH_C= F EXCH_P= F
 
 Geminal basis:    OPTFULL  GEM_TYPE=SLATER  BETA=1.0  NGEM=6

 Optimizing Gaussian exponents for each gem_beta

 Geminal optimization for beta= 1.0000
 Weight function:   m=0, omega= 1.4646

 Augmented Hessian optimization of geminal fit. Trust ratio= 0.40000
 Convergence reached after   2 iterations. Final gradient= 8.24D-16, Step= 4.32D-06, Delta= 1.28D-09
 
 Alpha:                 0.19532     0.81920     2.85917     9.50073    35.69989   197.79328
 Coeff:                 0.27070     0.30552     0.18297     0.10986     0.06810     0.04224
 

 All pairs explicitly correlated. Number of r12-pairs:           78
 
 AO(A)-basis ORBITAL           loaded. Number of functions:     230
 RI(R)-basis CC-PVTZ/JKFIT     loaded. Number of functions:     376
 DF-basis CC-PVTZ/JKFIT        loaded. Number of functions:     376

 Screening thresholds:   THRAO=  1.00D-10  THRMO=  1.00D-09  THRPROD=  1.00D-09
                         THRSW=  1.00D-05  THROV=  1.00D-12  THRF12=   1.00D-08

 CPU time for Fock operators                      0.94 sec
 
 Construction of ABS:
 Smallest eigenvalue of S          2.57E-04  (threshold= 1.00E-08)
 Ratio eigmin/eigmax               1.83E-06  (threshold= 1.00E-09)
 Smallest eigenvalue of S kept     2.57E-04  (threshold= 2.57E-04, 0 functions deleted, 376 kept)
 
 Construction of CABS:
 Smallest eigenvalue of S          2.29E-08  (threshold= 1.00E-08)
 Ratio eigmin/eigmax               2.29E-08  (threshold= 1.00E-09)
 Smallest eigenvalue of S kept     2.29E-08  (threshold= 2.29E-08, 0 functions deleted, 376 kept)
 
 CPU time for CABS singles                        0.18 sec

 CABS-singles contribution of  -0.01596110 patched into reference energy.
 New reference energy        -263.78590973
 
 AO(A)-basis ORBITAL           loaded. Number of functions:     230
 RI(R)-basis CC-PVTZ/JKFIT     loaded. Number of functions:     376
 DF-basis AUG-CC-PVTZ/MP2FIT   loaded. Number of functions:     516

 Screening thresholds:   THRAO=  1.00D-10  THRMO=  1.00D-09  THRPROD=  1.00D-09
                         THRSW=  1.00D-05  THROV=  1.00D-12  THRF12=   1.00D-08

 CPU time for 3-index integral evaluation         1.85 sec
 CPU time for first  half transformation          0.20 sec (10185.3 MFLOP/sec)
 CPU time for second half transformation          0.03 sec ( 3171.8 MFLOP/sec)
 CPU time for sorting                             0.13 sec
 CPU time for fitting                             0.07 sec (19779.0 MFLOP/sec)
 CPU time for tilde quantities                    0.05 sec (36977.6 MFLOP/sec)
 CPU time for assembly                            0.86 sec (27346.6 MFLOP/sec)
 CPU time for tranop_f12                          0.93 sec (31523.4 MFLOP/sec)
 CPU time for f12 integrals (total)               6.38 sec
 F12-matrices built in  3 passes.
 F12-matrices built in  3 passes.
 F12-matrices built in  3 passes.
 F12-matrices built in  3 passes.
 FC-matrix built in  3 passes.
 CPU time for f12 matrices (total)                0.56 sec

 Diagonal F12 approximation with fixed coefficients:  TSING= 0.500,  TTRIP= 0.250 (scaled by -1/beta)

 DF-MP2-F12 energy corrections:
 ------------------------------
 Approx.                                    Singlet             Triplet             Total
 DF-MP2-F12/3*C(DX,FIX)                -0.097504906998     -0.016950816993     -0.114455723990
 DF-MP2-F12/3*C(FIX)                   -0.079905000097     -0.013407857485     -0.093312857582
 DF-MP2-F12/3C(FIX)                    -0.080263393217     -0.013430812759     -0.093694205976

 DF-MP2-F12 correlation energies:
 --------------------------------
 Approx.                                    Singlet             Triplet             Ecorr            Total Energy
 DF-MP2                                -0.537340011055     -0.342776387048     -0.880116398103   -264.666026126209
 DF-MP2-F12/3*C(DX,FIX)                -0.634844918053     -0.359727204040     -0.994572122093   -264.780481850199
 DF-MP2-F12/3*C(FIX)                   -0.617245011152     -0.356184244533     -0.973429255685   -264.759338983791
 DF-MP2-F12/3C(FIX)                    -0.617603404272     -0.356207199807     -0.973810604079   -264.759720332185

 SCS-DF-MP2 energies (F_SING= 1.20000  F_TRIP= 0.62222  F_PARALLEL= 0.33333):
 ----------------------------------------------------------------------------
 SCS-DF-MP2                            -0.858091098540   -264.644000826646
 SCS-DF-MP2-F12/3*C(DX,FIX)            -0.985644161955   -264.771553890061
 SCS-DF-MP2-F12/3*C(FIX)               -0.962319765536   -264.748229493642
 SCS-DF-MP2-F12/3C(FIX)                -0.962764120562   -264.748673848668
 Symmetry transformation completed.

 Number of N-1 electron functions:              12
 Number of N-2 electron functions:              78
 Number of singly external CSFs:              2568
 Number of doubly external CSFs:           3298596
 Total number of CSFs:                     3301165

 Pair and operator lists are different

 Length of J-op  integral file:             474.22 MB
 Length of K-op  integral file:             572.29 MB
 Length of 3-ext integral record:             0.00 MB

 For full I/O caching in triples, increase memory by 50.81 Mwords to 151.09 Mwords.

 Integral transformation finished. Total CPU:  12.93 sec, npass=  1  Memory used:  87.46 MW

 Reference energy:                   -263.78590973

 Adding F12 terms to K(Cij), methodcc=6,  factor=1.0

 ITER.      SQ.NORM     CORR.ENERGY   TOTAL ENERGY   ENERGY CHANGE        DEN1      VAR(S)    VAR(P)  DIIS     TIME
   1      1.20176262    -0.86220289  -264.64811262     0.01792991     0.04638299  0.71D-02  0.55D-02  1  1    29.00
   2      1.21598772    -0.85801862  -264.64392835     0.00418427    -0.02004606  0.85D-04  0.58D-03  2  2    37.66
   3      1.22129842    -0.85811271  -264.64402244    -0.00009409    -0.00235183  0.13D-03  0.32D-04  3  3    45.29
   4      1.22406873    -0.85798762  -264.64389735     0.00012509    -0.00140055  0.74D-05  0.40D-05  4  4    52.42
   5      1.22508225    -0.85795063  -264.64386036     0.00003700    -0.00036150  0.54D-06  0.28D-06  5  5    59.46
   6      1.22524175    -0.85792418  -264.64383391     0.00002645    -0.00000787  0.39D-07  0.23D-07  6  6    66.74
   7      1.22527056    -0.85792180  -264.64383153     0.00000238    -0.00000613  0.25D-08  0.39D-08  6  4    74.22
   8      1.22527085    -0.85792132  -264.64383105     0.00000048     0.00000192  0.38D-09  0.26D-09  6  1    81.66
   9      1.22527145    -0.85792139  -264.64383111    -0.00000007     0.00000055  0.25D-10  0.21D-10  6  2    89.17

 Norm of t1 vector:      0.10538190      S-energy:     0.00000005      T1 diagnostic:  0.01521057
                                                                       D1 diagnostic:  0.04464274

 Adding energy correction from Wij-K(Fij), methodcc=6  factor=1.0
 
  CCSD correlation energy              -0.857921386799
  MP2-F12 correction (uncoupled)       -0.092542513735
  C*T doubles correction               -0.001473692860
  f12b correction                       0.015403122430


 Total CPU time for triples:    213.70 sec


 RESULTS
 =======

  Reference energy                   -263.769948623981
  F12 singles correction               -0.015961104124

 F12 singles corrections added to reference energy

  New reference energy               -263.785909728106

  F12a singlet correction              -0.080466090345
  F12a triplet correction              -0.013550116250
  F12a total correction                -0.094016206596

 F12a corrections for ansatz F12/3C(FIX) added to CCSD energy
 
  CCSD-F12a singlet pair energy        -0.641549855560
  CCSD-F12a triplet pair energy        -0.310387786074
  CCSD-F12a correlation energy         -0.951937593395

  Triples (T) contribution             -0.037510332022
  Total correlation energy             -0.989447925417

  CCSD-F12a total energy             -264.737847321501
  CCSD[T]-F12a energy                -264.777874573205
  CCSD-T-F12a energy                 -264.774427882100
 !CCSD(T)-F12a total energy          -264.775357653523

 F12b corrections for ansatz F12/3C(FIX) added to CCSD(T)-F12a energy

  CCSD-F12b singlet pair energy        -0.627370629894
  CCSD-F12b triplet pair energy        -0.309163889310
  CCSD-F12b correlation energy         -0.936534470965

  Triples (T) contribution             -0.037510332022
  Total correlation energy             -0.974044802987

  CCSD-F12b total energy             -264.722444199071
  CCSD[T]-F12b energy                -264.762471450775
  CCSD-T-F12b energy                 -264.759024759670
 !CCSD(T)-F12b total energy          -264.759954531093

 Timing summary (sec):

 STEP                 CPU(USER)    SYS     CPU(TOT)    WALL
 Transformation         13.05      1.14     14.19     14.66
 CCSD iterations        67.40      3.22     70.62     72.10
 Triples               213.70      2.54    216.24    216.16
 MP2-F12                 8.74      1.26     10.00     10.00
 F12b energy             4.29      0.04      4.33      4.33

 Program statistics:

 Available memory in ccsd:                99998934
 Min. memory needed in ccsd:               8644845
 Max. memory used in ccsd:                11598633
 Max. memory used in cckext:               8768967 (10 integral passes)



 **********************************************************************************************************************************
 DATASETS  * FILE   NREC   LENGTH (MB)   RECORD NAMES
              1      20      527.84       500      610      700      900      950      970     1000      129      960     1100   
                                          VAR    BASINP    GEOM    SYMINP    ZMAT    AOBASIS   BASIS     P2S    ABASIS      S 
                                         1400     1410     1200     1210     1080     1600     1650     1700      960(1)  1380   
                                           T        V       H0       H01     AOSYM     SMH    MOLCAS    OPER    ABASIS    JKOP   

              2       5        2.50       700     1000     2100     7360     7350   
                                         GEOM     BASIS     RHF    F12ABS    EF12   

 PROGRAMS   *        TOTAL   CCSD(T)        HF       INT
 CPU TIMES  *       321.36    307.39      7.90      6.00
 REAL TIME  *       332.65 SEC
 DISK USED  *         2.36 GB      
 SF USED    *         1.91 GB      
 GA USED    *         2.40 MB       (max)       0.00 MB       (current)
 **********************************************************************************************************************************

     CCSD(T)-F12        HF-SCF  
   -264.75995453   -263.76994862
 **********************************************************************************************************************************
 Variable memory released
