
 Primary working directories    : /scratch/kee
 Secondary working directories  : /scratch/kee
 Wavefunction directory         : /home/kee/wfu/
 Main file repository           : /scratch/kee/

 ARCHNAME  : Linux/x86_64
 FC        : /opt/intel/composer_xe_2015.0.090/bin/intel64/ifort
 FCVERSION : 15.0.0
 BLASLIB   : -L/opt/intel/mkl/lib/intel64 -lmkl_intel_ilp64 -lmkl_sequential -lmkl_core
 id        : emory

 Nodes     nprocs
 node20       3
 Number of processes for MPI-2 version of Molpro:   nprocs(total)=    4   nprocs(compute)=    3   nprocs(helper)=    1
 ga_uses_ma=false, calling ma_init with nominal heap.
 GA-space will be limited to   8.0 MW (determined by -G option)

 Using customized tuning parameters: mindgm=7; mindgv=32; mindgc=1; mindgr=1; noblas=0; mincuda=1000; minvec=7
 default implementation of scratch files=sf  

 ***,co2h2o
 memory,100,m
 basis avtz
 geomtype = xyz
 geometry = {
 6
       0.00000000
 O     0.00032100    1.15989800    0.00000000
 O     0.00041400   -1.15989400    0.00000000
 O     8.05967210    5.90806131    2.11921934
 H     8.85122662    6.21701696    1.67687070
 H     8.37365791    5.42943356    2.88734157
 C     0.01953800    0.00000300    0.00000000
 }
 hf
 ccsd(t)-f12
 ---

 Variables initialized (665), CPU time= 0.00 sec
 Commands  initialized (462), CPU time= 0.01 sec, 486 directives.
 Default parameters read. Elapsed time= 0.04 sec

 Checking input...
 Passed
1


                                         ***  PROGRAM SYSTEM MOLPRO  ***
                         Copyright, University College Cardiff Consultants Limited, 2008

                                    Version 2010.1 linked 9 Dec 2014 15:06:28 


 **********************************************************************************************************************************
 LABEL *   co2h2o                                                                        
 Linux-2.6.32-504.el6.x86_64/node20(x86_64) 64 bit mpp version                           DATE: 15-Dec-16          TIME: 01:46:48  
 **********************************************************************************************************************************

 Patch level:      19
 **********************************************************************************************************************************

 Variable memory set to  100000000 words,  buffer space   230000 words

 SETTING BASIS          =    AVTZ
 SETTING GEOMTYPE       =    XYZ

Geometry recognized as XYZ



 Recomputing integrals since basis changed


 Using spherical harmonics

 Library entry O      S aug-cc-pVTZ          selected for orbital group  1
 Library entry O      P aug-cc-pVTZ          selected for orbital group  1
 Library entry O      D aug-cc-pVTZ          selected for orbital group  1
 Library entry O      F aug-cc-pVTZ          selected for orbital group  1
 Library entry H      S aug-cc-pVTZ          selected for orbital group  2
 Library entry H      P aug-cc-pVTZ          selected for orbital group  2
 Library entry H      D aug-cc-pVTZ          selected for orbital group  2
 Library entry C      S aug-cc-pVTZ          selected for orbital group  3
 Library entry C      P aug-cc-pVTZ          selected for orbital group  3
 Library entry C      D aug-cc-pVTZ          selected for orbital group  3
 Library entry C      F aug-cc-pVTZ          selected for orbital group  3

1PROGRAM * SEWARD (Integral evaluation for generally contracted gaussian basis sets)     Author: Roland Lindh, 1990

 Geometry written to block  1 of record 700


 Point group  C1  



 ATOMIC COORDINATES

 NR  ATOM    CHARGE       X              Y              Z

   1  O       8.00    0.000606602    2.191889560    0.000000000
   2  O       8.00    0.000782347   -2.191882001    0.000000000
   3  O       8.00   15.230572978   11.164617844    4.004744165
   4  H       1.00   16.726394239   11.748459409    3.168826381
   5  H       1.00   15.823920168   10.260142477    5.456284815
   6  C       6.00    0.036921469    0.000005669    0.000000000

 Bond lengths in Bohr (Angstrom)

 1-6  2.192184701  2-6  2.192185575  3-4  1.810279194  3-5  1.810278110
     (1.160054182)     (1.160054644)     (0.957958491)     (0.957957918)

 Bond angles

  1-6-2  178.10622893   4-3-5  105.10354935

 NUCLEAR CHARGE:                   32
 NUMBER OF PRIMITIVE AOS:         322
 NUMBER OF SYMMETRY AOS:          282
 NUMBER OF CONTRACTIONS:          230   ( 230A   )
 NUMBER OF CORE ORBITALS:           4   (   4A   )
 NUMBER OF VALENCE ORBITALS:       18   (  18A   )


 NUCLEAR REPULSION ENERGY   78.88232261


 Eigenvalues of metric

         1 0.348E-03 0.383E-03 0.392E-03 0.419E-03 0.896E-03 0.914E-03 0.167E-02 0.174E-02


 Contracted 2-electron integrals neglected if value below      1.0D-11
 AO integral compression algorithm  1   Integral accuracy      1.0D-11

     415.760 MB (compressed) written to integral file ( 21.0%)

     Node minimum: 125.829 MB, node maximum: 158.597 MB


 NUMBER OF SORTED TWO-ELECTRON INTEGRALS:  117629820.     BUFFER LENGTH:  32768
 NUMBER OF SEGMENTS:   8  SEGMENT LENGTH:   15997437      RECORD LENGTH: 524288

 Memory used in sort:      16.55 MW

 SORT1 READ   247207146. AND WROTE    28840858. INTEGRALS IN     87 RECORDS. CPU TIME:     2.26 SEC, REAL TIME:     2.59 SEC
 SORT2 READ    86012459. AND WROTE   352862895. INTEGRALS IN   1503 RECORDS. CPU TIME:     1.00 SEC, REAL TIME:     1.29 SEC

 Node minimum:   117612110.  Node maximum:   117629820. integrals

 OPERATOR DM      FOR CENTER  0  COORDINATES:    0.000000    0.000000    0.000000


 **********************************************************************************************************************************
 DATASETS  * FILE   NREC   LENGTH (MB)   RECORD NAMES
              1      18        4.62       500      610      700      900      950      970     1000      129      960     1100   
                                          VAR    BASINP    GEOM    SYMINP    ZMAT    AOBASIS   BASIS     P2S    ABASIS      S 
                                         1400     1410     1200     1210     1080     1600     1650     1700   
                                           T        V       H0       H01     AOSYM     SMH    MOLCAS    OPER   

 PROGRAMS   *        TOTAL       INT
 CPU TIMES  *         5.90      5.83
 REAL TIME  *         6.69 SEC
 DISK USED  *         1.45 GB      
 GA USED    *         0.00 MB       (max)       0.00 MB       (current)
 **********************************************************************************************************************************

1PROGRAM * RHF-SCF (CLOSED SHELL)       Authors: W. Meyer, H.-J. Werner


 NUMBER OF ELECTRONS:      16+   16-    SPACE SYMMETRY=1    SPIN SYMMETRY=Singlet 
 CONVERGENCE THRESHOLDS:    1.00E-05 (Density)    1.00E-07 (Energy)
 MAX. NUMBER OF ITERATIONS:       60
 INTERPOLATION TYPE:            DIIS
 INTERPOLATION STEPS:              2 (START)      1 (STEP)
 LEVEL SHIFTS:                  0.00 (CLOSED)  0.00 (OPEN) 



 Orbital guess generated from atomic densities. Full valence occupancy:   22

 Molecular orbital dump at record        2100.2

 ITERATION    DDIFF          GRAD             ENERGY        2-EL.EN.            DIPOLE MOMENTS         DIIS
    1      0.000D+00      0.000D+00      -263.66133103    353.274512    1.12568   -0.16409    0.31507    0
    2      0.000D+00      0.468D-02      -263.72653040    348.710248    0.64536   -0.09095    0.18693    1
    3      0.749D-02      0.317D-02      -263.76940010    351.263947    0.76602   -0.10991    0.21734    2
    4      0.307D-02      0.296D-03      -263.76988841    351.050472    0.76908   -0.10973    0.21860    3
    5      0.356D-03      0.858D-04      -263.76994481    351.054589    0.76399   -0.10951    0.21708    4
    6      0.132D-03      0.344D-04      -263.76995169    351.068320    0.76460   -0.10926    0.21730    5
    7      0.433D-04      0.850D-05      -263.76995239    351.060133    0.76418   -0.10937    0.21718    6
    8      0.141D-04      0.190D-05      -263.76995244    351.061380    0.76418   -0.10925    0.21718    7
    9      0.382D-05      0.794D-06      -263.76995244    351.061228    0.76416   -0.10936    0.21717    0

 Final occupancy:  16

 !RHF STATE 1.1 Energy               -263.769952439203
 Nuclear energy                        78.88232261
 One-electron energy                 -518.18288923
 Two-electron energy                  175.53061418
 Virial quotient                       -1.00173756
 !RHF STATE 1.1 Dipole moment           0.76415758    -0.10936137     0.21717123
 Dipole moment /Debye                   1.94216763    -0.27795068     0.55195806

 Orbital energies:

         1.1          2.1          3.1          4.1          5.1          6.1          7.1          8.1          9.1         10.1
    -20.651426   -20.651259   -20.567137   -11.459462    -1.530749    -1.477625    -1.352882    -0.799524    -0.742391    -0.718668

        11.1         12.1         13.1         14.1         15.1         16.1         17.1         18.1
     -0.714546    -0.714532    -0.583721    -0.543367    -0.543339    -0.510200     0.029180     0.046806


 **********************************************************************************************************************************
 DATASETS  * FILE   NREC   LENGTH (MB)   RECORD NAMES
              1      18        4.62       500      610      700      900      950      970     1000      129      960     1100   
                                          VAR    BASINP    GEOM    SYMINP    ZMAT    AOBASIS   BASIS     P2S    ABASIS      S 
                                         1400     1410     1200     1210     1080     1600     1650     1700   
                                           T        V       H0       H01     AOSYM     SMH    MOLCAS    OPER   

              2       3        1.44       700     1000     2100   
                                         GEOM     BASIS     RHF  

 PROGRAMS   *        TOTAL        HF       INT
 CPU TIMES  *        13.68      7.78      5.83
 REAL TIME  *        14.73 SEC
 DISK USED  *         1.48 GB      
 SF USED    *         0.21 MB      
 GA USED    *         0.00 MB       (max)       0.00 MB       (current)
 **********************************************************************************************************************************


1PROGRAM * CCSD (Closed-shell coupled cluster)     Authors: C. Hampel, H.-J. Werner, 1991, M. Deegan, P.J. Knowles, 1992

                                  CCSD-F12 implementation by  H.-J. Werner, 2007

                   Density fitting integral evaluation by F.R. Manby, 2003,2007, G. Knizia, 2010

 Basis set CC-PVTZ/JKFIT generated.      Number of basis functions:   376 
 Basis set AUG-CC-PVTZ/MP2FIT generated. Number of basis functions:   516 

 Convergence thresholds:  THRVAR = 1.00D-08  THRDEN = 1.00D-06

 CCSD(T)     terms to be evaluated (factor= 1.000)


 Number of core orbitals:           4 (   4 )
 Number of closed-shell orbitals:  12 (  12 )
 Number of external orbitals:     214 ( 214 )

 Molecular orbitals read from record     2100.2  Type=RHF/CANONICAL (state 1.1)

 MP2-F12 correlation treatment (H.-J. Werner, 2006)
 --------------------------------------------------

 Using MP2-F12 with ansatz 3C(FIX)

 Using projected zeroth-order Hamiltonian (+Z)

 FOCKRIB=T FOCKRIC=T FOCKRIP=T CABSP=T CABSA=T CABSK=T CABSF=T GBC=F EBC=F DMAT=T NOFIK=T NOPAO=1 SOLVE=-1  USEPAO=0
 EXCH_A= T EXCH_B= F EXCH_C= F EXCH_P= F
 
 Geminal basis:    OPTFULL  GEM_TYPE=SLATER  BETA=1.0  NGEM=6

 Optimizing Gaussian exponents for each gem_beta

 Geminal optimization for beta= 1.0000
 Weight function:   m=0, omega= 1.4646

 Augmented Hessian optimization of geminal fit. Trust ratio= 0.40000
 Convergence reached after   2 iterations. Final gradient= 8.24D-16, Step= 4.32D-06, Delta= 1.28D-09
 
 Alpha:                 0.19532     0.81920     2.85917     9.50073    35.69989   197.79328
 Coeff:                 0.27070     0.30552     0.18297     0.10986     0.06810     0.04224
 

 All pairs explicitly correlated. Number of r12-pairs:           78
 
 AO(A)-basis ORBITAL           loaded. Number of functions:     230
 RI(R)-basis CC-PVTZ/JKFIT     loaded. Number of functions:     376
 DF-basis CC-PVTZ/JKFIT        loaded. Number of functions:     376

 Screening thresholds:   THRAO=  1.00D-10  THRMO=  1.00D-09  THRPROD=  1.00D-09
                         THRSW=  1.00D-05  THROV=  1.00D-12  THRF12=   1.00D-08

 CPU time for Fock operators                      0.97 sec
 
 Construction of ABS:
 Smallest eigenvalue of S          2.57E-04  (threshold= 1.00E-08)
 Ratio eigmin/eigmax               1.83E-06  (threshold= 1.00E-09)
 Smallest eigenvalue of S kept     2.57E-04  (threshold= 2.57E-04, 0 functions deleted, 376 kept)
 
 Construction of CABS:
 Smallest eigenvalue of S          2.29E-08  (threshold= 1.00E-08)
 Ratio eigmin/eigmax               2.29E-08  (threshold= 1.00E-09)
 Smallest eigenvalue of S kept     2.29E-08  (threshold= 2.29E-08, 0 functions deleted, 376 kept)
 
 CPU time for CABS singles                        0.18 sec

 CABS-singles contribution of  -0.01596108 patched into reference energy.
 New reference energy        -263.78591351
 
 AO(A)-basis ORBITAL           loaded. Number of functions:     230
 RI(R)-basis CC-PVTZ/JKFIT     loaded. Number of functions:     376
 DF-basis AUG-CC-PVTZ/MP2FIT   loaded. Number of functions:     516

 Screening thresholds:   THRAO=  1.00D-10  THRMO=  1.00D-09  THRPROD=  1.00D-09
                         THRSW=  1.00D-05  THROV=  1.00D-12  THRF12=   1.00D-08

 CPU time for 3-index integral evaluation         1.84 sec
 CPU time for first  half transformation          0.22 sec ( 9552.5 MFLOP/sec)
 CPU time for second half transformation          0.01 sec ( 8994.7 MFLOP/sec)
 CPU time for sorting                             0.16 sec
 CPU time for fitting                             0.06 sec (23217.5 MFLOP/sec)
 CPU time for tilde quantities                    0.06 sec (30814.7 MFLOP/sec)
 CPU time for assembly                            0.89 sec (26546.9 MFLOP/sec)
 CPU time for tranop_f12                          1.04 sec (28847.9 MFLOP/sec)
 CPU time for f12 integrals (total)               6.61 sec
 F12-matrices built in  3 passes.
 F12-matrices built in  3 passes.
 F12-matrices built in  3 passes.
 F12-matrices built in  3 passes.
 FC-matrix built in  3 passes.
 CPU time for f12 matrices (total)                0.58 sec

 Diagonal F12 approximation with fixed coefficients:  TSING= 0.500,  TTRIP= 0.250 (scaled by -1/beta)

 DF-MP2-F12 energy corrections:
 ------------------------------
 Approx.                                    Singlet             Triplet             Total
 DF-MP2-F12/3*C(DX,FIX)                -0.097505050855     -0.016950843773     -0.114455894628
 DF-MP2-F12/3*C(FIX)                   -0.079905125035     -0.013407882419     -0.093313007454
 DF-MP2-F12/3C(FIX)                    -0.080263513136     -0.013430832845     -0.093694345981

 DF-MP2-F12 correlation energies:
 --------------------------------
 Approx.                                    Singlet             Triplet             Ecorr            Total Energy
 DF-MP2                                -0.537339191657     -0.342775373626     -0.880114565283   -264.666028079560
 DF-MP2-F12/3*C(DX,FIX)                -0.634844242513     -0.359726217398     -0.994570459911   -264.780483974188
 DF-MP2-F12/3*C(FIX)                   -0.617244316692     -0.356183256045     -0.973427572737   -264.759341087014
 DF-MP2-F12/3C(FIX)                    -0.617602704794     -0.356206206471     -0.973808911264   -264.759722425541

 SCS-DF-MP2 energies (F_SING= 1.20000  F_TRIP= 0.62222  F_PARALLEL= 0.33333):
 ----------------------------------------------------------------------------
 SCS-DF-MP2                            -0.858089484689   -264.644002998967
 SCS-DF-MP2-F12/3*C(DX,FIX)            -0.985642737397   -264.771556251674
 SCS-DF-MP2-F12/3*C(FIX)               -0.962318317125   -264.748231831403
 SCS-DF-MP2-F12/3C(FIX)                -0.962762663112   -264.748676177389
 Symmetry transformation completed.

 Number of N-1 electron functions:              12
 Number of N-2 electron functions:              78
 Number of singly external CSFs:              2568
 Number of doubly external CSFs:           3298596
 Total number of CSFs:                     3301165

 Pair and operator lists are different

 Length of J-op  integral file:             474.22 MB
 Length of K-op  integral file:             572.29 MB
 Length of 3-ext integral record:             0.00 MB

 For full I/O caching in triples, increase memory by 50.81 Mwords to 151.09 Mwords.

 Integral transformation finished. Total CPU:  12.60 sec, npass=  1  Memory used:  87.46 MW

 Reference energy:                   -263.78591351

 Adding F12 terms to K(Cij), methodcc=6,  factor=1.0

 ITER.      SQ.NORM     CORR.ENERGY   TOTAL ENERGY   ENERGY CHANGE        DEN1      VAR(S)    VAR(P)  DIIS     TIME
   1      1.20176196    -0.86220137  -264.64811489     0.01792960     0.04638243  0.71D-02  0.55D-02  1  1    28.88
   2      1.21598694    -0.85801718  -264.64393069     0.00418420    -0.02004590  0.85D-04  0.58D-03  2  2    37.03
   3      1.22129763    -0.85811127  -264.64402479    -0.00009410    -0.00235184  0.13D-03  0.32D-04  3  3    46.15
   4      1.22406792    -0.85798619  -264.64389971     0.00012508    -0.00140054  0.74D-05  0.40D-05  4  4    54.04
   5      1.22508144    -0.85794920  -264.64386271     0.00003700    -0.00036150  0.54D-06  0.28D-06  5  5    62.44
   6      1.22524093    -0.85792275  -264.64383626     0.00002645    -0.00000787  0.39D-07  0.23D-07  6  6    70.96
   7      1.22526975    -0.85792037  -264.64383389     0.00000238    -0.00000613  0.25D-08  0.39D-08  6  4    79.38
   8      1.22527003    -0.85791989  -264.64383340     0.00000048     0.00000192  0.38D-09  0.26D-09  6  1    87.94
   9      1.22527064    -0.85791996  -264.64383347    -0.00000007     0.00000055  0.25D-10  0.21D-10  6  2    96.43

 Norm of t1 vector:      0.10538171      S-energy:     0.00000003      T1 diagnostic:  0.01521054
                                                                       D1 diagnostic:  0.04464265

 Adding energy correction from Wij-K(Fij), methodcc=6  factor=1.0
 
  CCSD correlation energy              -0.857919955499
  MP2-F12 correction (uncoupled)       -0.092542670760
  C*T doubles correction               -0.001473688273
  f12b correction                       0.015403123001


 Total CPU time for triples:    269.59 sec


 RESULTS
 =======

  Reference energy                   -263.769952439203
  F12 singles correction               -0.015961075074

 F12 singles corrections added to reference energy

  New reference energy               -263.785913514277

  F12a singlet correction              -0.080466217544
  F12a triplet correction              -0.013550141489
  F12a total correction                -0.094016359033

 F12a corrections for ansatz F12/3C(FIX) added to CCSD energy
 
  CCSD-F12a singlet pair energy        -0.641549273616
  CCSD-F12a triplet pair energy        -0.310387070003
  CCSD-F12a correlation energy         -0.951936314532

  Triples (T) contribution             -0.037510072477
  Total correlation energy             -0.989446387009

  CCSD-F12a total energy             -264.737849828809
  CCSD[T]-F12a energy                -264.777876791189
  CCSD-T-F12a energy                 -264.774430141233
 !CCSD(T)-F12a total energy          -264.775359901286

 F12b corrections for ansatz F12/3C(FIX) added to CCSD(T)-F12a energy

  CCSD-F12b singlet pair energy        -0.627370046526
  CCSD-F12b triplet pair energy        -0.309163174092
  CCSD-F12b correlation energy         -0.936533191531

  Triples (T) contribution             -0.037510072477
  Total correlation energy             -0.974043264007

  CCSD-F12b total energy             -264.722446705808
  CCSD[T]-F12b energy                -264.762473668187
  CCSD-T-F12b energy                 -264.759027018232
 !CCSD(T)-F12b total energy          -264.759956778284

 Timing summary (sec):

 STEP                 CPU(USER)    SYS     CPU(TOT)    WALL
 Transformation         12.73      1.10     13.83     13.94
 CCSD iterations        74.77      2.95     77.72     78.33
 Triples               269.59      2.98    272.57    272.49
 MP2-F12                 8.95      1.31     10.26     10.27
 F12b energy             5.11      0.04      5.15      5.15

 Program statistics:

 Available memory in ccsd:                99998934
 Min. memory needed in ccsd:               8644845
 Max. memory used in ccsd:                11598633
 Max. memory used in cckext:               8768967 (10 integral passes)



 **********************************************************************************************************************************
 DATASETS  * FILE   NREC   LENGTH (MB)   RECORD NAMES
              1      20      527.84       500      610      700      900      950      970     1000      129      960     1100   
                                          VAR    BASINP    GEOM    SYMINP    ZMAT    AOBASIS   BASIS     P2S    ABASIS      S 
                                         1400     1410     1200     1210     1080     1600     1650     1700      960(1)  1380   
                                           T        V       H0       H01     AOSYM     SMH    MOLCAS    OPER    ABASIS    JKOP   

              2       5        2.50       700     1000     2100     7360     7350   
                                         GEOM     BASIS     RHF    F12ABS    EF12   

 PROGRAMS   *        TOTAL   CCSD(T)        HF       INT
 CPU TIMES  *       385.03    371.34      7.78      5.83
 REAL TIME  *       395.25 SEC
 DISK USED  *         2.35 GB      
 SF USED    *         1.91 GB      
 GA USED    *         2.40 MB       (max)       0.00 MB       (current)
 **********************************************************************************************************************************

     CCSD(T)-F12        HF-SCF  
   -264.75995678   -263.76995244
 **********************************************************************************************************************************
 Variable memory released
