
 Primary working directories    : /scratch/kee
 Secondary working directories  : /scratch/kee
 Wavefunction directory         : /home/kee/wfu/
 Main file repository           : /scratch/kee/

 ARCHNAME  : Linux/x86_64
 FC        : /opt/intel/composer_xe_2015.0.090/bin/intel64/ifort
 FCVERSION : 15.0.0
 BLASLIB   : -L/opt/intel/mkl/lib/intel64 -lmkl_intel_ilp64 -lmkl_sequential -lmkl_core
 id        : emory

 Nodes     nprocs
 node20       3
 Number of processes for MPI-2 version of Molpro:   nprocs(total)=    4   nprocs(compute)=    3   nprocs(helper)=    1
 ga_uses_ma=false, calling ma_init with nominal heap.
 GA-space will be limited to   8.0 MW (determined by -G option)

 Using customized tuning parameters: mindgm=7; mindgv=32; mindgc=1; mindgr=1; noblas=0; mincuda=1000; minvec=7
 default implementation of scratch files=sf  

 ***,co2h2o
 memory,100,m
 basis avtz
 geomtype = xyz
 geometry = {
 6
       0.00000000
 O     0.00032100    1.15989800    0.00000000
 O     0.00041400   -1.15989400    0.00000000
 O     7.90202241    5.79221703    2.07766602
 H     8.69357693    6.10117268    1.63531738
 H     8.21600822    5.31358928    2.84578825
 C     0.01953800    0.00000300    0.00000000
 }
 hf
 ccsd(t)-f12
 ---

 Variables initialized (665), CPU time= 0.00 sec
 Commands  initialized (462), CPU time= 0.01 sec, 486 directives.
 Default parameters read. Elapsed time= 0.03 sec

 Checking input...
 Passed
1


                                         ***  PROGRAM SYSTEM MOLPRO  ***
                         Copyright, University College Cardiff Consultants Limited, 2008

                                    Version 2010.1 linked 9 Dec 2014 15:06:28 


 **********************************************************************************************************************************
 LABEL *   co2h2o                                                                        
 Linux-2.6.32-504.el6.x86_64/node20(x86_64) 64 bit mpp version                           DATE: 15-Dec-16          TIME: 01:23:49  
 **********************************************************************************************************************************

 Patch level:      19
 **********************************************************************************************************************************

 Variable memory set to  100000000 words,  buffer space   230000 words

 SETTING BASIS          =    AVTZ
 SETTING GEOMTYPE       =    XYZ

Geometry recognized as XYZ



 Recomputing integrals since basis changed


 Using spherical harmonics

 Library entry O      S aug-cc-pVTZ          selected for orbital group  1
 Library entry O      P aug-cc-pVTZ          selected for orbital group  1
 Library entry O      D aug-cc-pVTZ          selected for orbital group  1
 Library entry O      F aug-cc-pVTZ          selected for orbital group  1
 Library entry H      S aug-cc-pVTZ          selected for orbital group  2
 Library entry H      P aug-cc-pVTZ          selected for orbital group  2
 Library entry H      D aug-cc-pVTZ          selected for orbital group  2
 Library entry C      S aug-cc-pVTZ          selected for orbital group  3
 Library entry C      P aug-cc-pVTZ          selected for orbital group  3
 Library entry C      D aug-cc-pVTZ          selected for orbital group  3
 Library entry C      F aug-cc-pVTZ          selected for orbital group  3

1PROGRAM * SEWARD (Integral evaluation for generally contracted gaussian basis sets)     Author: Roland Lindh, 1990

 Geometry written to block  1 of record 700


 Point group  C1  



 ATOMIC COORDINATES

 NR  ATOM    CHARGE       X              Y              Z

   1  O       8.00    0.000606602    2.191889560    0.000000000
   2  O       8.00    0.000782347   -2.191882001    0.000000000
   3  O       8.00   14.932658239   10.945703880    3.926219770
   4  H       1.00   16.428479500   11.529545446    3.090301986
   5  H       1.00   15.526005429   10.041228514    5.377760421
   6  C       6.00    0.036921469    0.000005669    0.000000000

 Bond lengths in Bohr (Angstrom)

 1-6  2.192184701  2-6  2.192185575  3-4  1.810279194  3-5  1.810278110
     (1.160054182)     (1.160054644)     (0.957958491)     (0.957957918)

 Bond angles

  1-6-2  178.10622893   4-3-5  105.10354935

 NUCLEAR CHARGE:                   32
 NUMBER OF PRIMITIVE AOS:         322
 NUMBER OF SYMMETRY AOS:          282
 NUMBER OF CONTRACTIONS:          230   ( 230A   )
 NUMBER OF CORE ORBITALS:           4   (   4A   )
 NUMBER OF VALENCE ORBITALS:       18   (  18A   )


 NUCLEAR REPULSION ENERGY   79.10610791


 Eigenvalues of metric

         1 0.347E-03 0.383E-03 0.392E-03 0.419E-03 0.896E-03 0.914E-03 0.167E-02 0.174E-02


 Contracted 2-electron integrals neglected if value below      1.0D-11
 AO integral compression algorithm  1   Integral accuracy      1.0D-11

     421.265 MB (compressed) written to integral file ( 20.9%)

     Node minimum: 134.480 MB, node maximum: 145.228 MB


 NUMBER OF SORTED TWO-ELECTRON INTEGRALS:  117629820.     BUFFER LENGTH:  32768
 NUMBER OF SEGMENTS:   8  SEGMENT LENGTH:   15997437      RECORD LENGTH: 524288

 Memory used in sort:      16.55 MW

 SORT1 READ   252049242. AND WROTE    29278155. INTEGRALS IN     87 RECORDS. CPU TIME:     2.22 SEC, REAL TIME:     2.54 SEC
 SORT2 READ    87325461. AND WROTE   352862895. INTEGRALS IN   1539 RECORDS. CPU TIME:     0.95 SEC, REAL TIME:     1.24 SEC

 Node minimum:   117612110.  Node maximum:   117629820. integrals

 OPERATOR DM      FOR CENTER  0  COORDINATES:    0.000000    0.000000    0.000000


 **********************************************************************************************************************************
 DATASETS  * FILE   NREC   LENGTH (MB)   RECORD NAMES
              1      18        4.62       500      610      700      900      950      970     1000      129      960     1100   
                                          VAR    BASINP    GEOM    SYMINP    ZMAT    AOBASIS   BASIS     P2S    ABASIS      S 
                                         1400     1410     1200     1210     1080     1600     1650     1700   
                                           T        V       H0       H01     AOSYM     SMH    MOLCAS    OPER   

 PROGRAMS   *        TOTAL       INT
 CPU TIMES  *         5.65      5.59
 REAL TIME  *         6.44 SEC
 DISK USED  *         1.44 GB      
 GA USED    *         0.00 MB       (max)       0.00 MB       (current)
 **********************************************************************************************************************************

1PROGRAM * RHF-SCF (CLOSED SHELL)       Authors: W. Meyer, H.-J. Werner


 NUMBER OF ELECTRONS:      16+   16-    SPACE SYMMETRY=1    SPIN SYMMETRY=Singlet 
 CONVERGENCE THRESHOLDS:    1.00E-05 (Density)    1.00E-07 (Energy)
 MAX. NUMBER OF ITERATIONS:       60
 INTERPOLATION TYPE:            DIIS
 INTERPOLATION STEPS:              2 (START)      1 (STEP)
 LEVEL SHIFTS:                  0.00 (CLOSED)  0.00 (OPEN) 



 Orbital guess generated from atomic densities. Full valence occupancy:   22

 Molecular orbital dump at record        2100.2

 ITERATION    DDIFF          GRAD             ENERGY        2-EL.EN.            DIPOLE MOMENTS         DIIS
    1      0.000D+00      0.000D+00      -263.66132785    353.726038    1.12568   -0.16409    0.31507    0
    2      0.000D+00      0.468D-02      -263.72652776    349.160222    0.64545   -0.09056    0.18693    1
    3      0.749D-02      0.317D-02      -263.76939883    351.714298    0.76608   -0.10971    0.21734    2
    4      0.307D-02      0.296D-03      -263.76988713    351.500833    0.76915   -0.10947    0.21860    3
    5      0.356D-03      0.858D-04      -263.76994354    351.504935    0.76405   -0.10930    0.21708    4
    6      0.132D-03      0.344D-04      -263.76995041    351.518667    0.76467   -0.10902    0.21730    5
    7      0.433D-04      0.851D-05      -263.76995111    351.510481    0.76425   -0.10915    0.21718    6
    8      0.141D-04      0.190D-05      -263.76995116    351.511724    0.76425   -0.10901    0.21718    7
    9      0.382D-05      0.809D-06      -263.76995116    351.511576    0.76422   -0.10913    0.21717    0

 Final occupancy:  16

 !RHF STATE 1.1 Energy               -263.769951163584
 Nuclear energy                        79.10610791
 One-electron energy                 -518.63184692
 Two-electron energy                  175.75578784
 Virial quotient                       -1.00173754
 !RHF STATE 1.1 Dipole moment           0.76422457    -0.10913202     0.21717215
 Dipole moment /Debye                   1.94233788    -0.27736775     0.55196040

 Orbital energies:

         1.1          2.1          3.1          4.1          5.1          6.1          7.1          8.1          9.1         10.1
    -20.651366   -20.651190   -20.567141   -11.459397    -1.530684    -1.477561    -1.352886    -0.799458    -0.742326    -0.718672

        11.1         12.1         13.1         14.1         15.1         16.1         17.1         18.1
     -0.714482    -0.714467    -0.583725    -0.543303    -0.543274    -0.510204     0.029123     0.046690


 **********************************************************************************************************************************
 DATASETS  * FILE   NREC   LENGTH (MB)   RECORD NAMES
              1      18        4.62       500      610      700      900      950      970     1000      129      960     1100   
                                          VAR    BASINP    GEOM    SYMINP    ZMAT    AOBASIS   BASIS     P2S    ABASIS      S 
                                         1400     1410     1200     1210     1080     1600     1650     1700   
                                           T        V       H0       H01     AOSYM     SMH    MOLCAS    OPER   

              2       3        1.44       700     1000     2100   
                                         GEOM     BASIS     RHF  

 PROGRAMS   *        TOTAL        HF       INT
 CPU TIMES  *        13.28      7.63      5.59
 REAL TIME  *        14.29 SEC
 DISK USED  *         1.48 GB      
 SF USED    *         0.21 MB      
 GA USED    *         0.00 MB       (max)       0.00 MB       (current)
 **********************************************************************************************************************************


1PROGRAM * CCSD (Closed-shell coupled cluster)     Authors: C. Hampel, H.-J. Werner, 1991, M. Deegan, P.J. Knowles, 1992

                                  CCSD-F12 implementation by  H.-J. Werner, 2007

                   Density fitting integral evaluation by F.R. Manby, 2003,2007, G. Knizia, 2010

 Basis set CC-PVTZ/JKFIT generated.      Number of basis functions:   376 
 Basis set AUG-CC-PVTZ/MP2FIT generated. Number of basis functions:   516 

 Convergence thresholds:  THRVAR = 1.00D-08  THRDEN = 1.00D-06

 CCSD(T)     terms to be evaluated (factor= 1.000)


 Number of core orbitals:           4 (   4 )
 Number of closed-shell orbitals:  12 (  12 )
 Number of external orbitals:     214 ( 214 )

 Molecular orbitals read from record     2100.2  Type=RHF/CANONICAL (state 1.1)

 MP2-F12 correlation treatment (H.-J. Werner, 2006)
 --------------------------------------------------

 Using MP2-F12 with ansatz 3C(FIX)

 Using projected zeroth-order Hamiltonian (+Z)

 FOCKRIB=T FOCKRIC=T FOCKRIP=T CABSP=T CABSA=T CABSK=T CABSF=T GBC=F EBC=F DMAT=T NOFIK=T NOPAO=1 SOLVE=-1  USEPAO=0
 EXCH_A= T EXCH_B= F EXCH_C= F EXCH_P= F
 
 Geminal basis:    OPTFULL  GEM_TYPE=SLATER  BETA=1.0  NGEM=6

 Optimizing Gaussian exponents for each gem_beta

 Geminal optimization for beta= 1.0000
 Weight function:   m=0, omega= 1.4646

 Augmented Hessian optimization of geminal fit. Trust ratio= 0.40000
 Convergence reached after   2 iterations. Final gradient= 8.24D-16, Step= 4.32D-06, Delta= 1.28D-09
 
 Alpha:                 0.19532     0.81920     2.85917     9.50073    35.69989   197.79328
 Coeff:                 0.27070     0.30552     0.18297     0.10986     0.06810     0.04224
 

 All pairs explicitly correlated. Number of r12-pairs:           78
 
 AO(A)-basis ORBITAL           loaded. Number of functions:     230
 RI(R)-basis CC-PVTZ/JKFIT     loaded. Number of functions:     376
 DF-basis CC-PVTZ/JKFIT        loaded. Number of functions:     376

 Screening thresholds:   THRAO=  1.00D-10  THRMO=  1.00D-09  THRPROD=  1.00D-09
                         THRSW=  1.00D-05  THROV=  1.00D-12  THRF12=   1.00D-08

 CPU time for Fock operators                      0.94 sec
 
 Construction of ABS:
 Smallest eigenvalue of S          2.57E-04  (threshold= 1.00E-08)
 Ratio eigmin/eigmax               1.83E-06  (threshold= 1.00E-09)
 Smallest eigenvalue of S kept     2.57E-04  (threshold= 2.57E-04, 0 functions deleted, 376 kept)
 
 Construction of CABS:
 Smallest eigenvalue of S          2.29E-08  (threshold= 1.00E-08)
 Ratio eigmin/eigmax               2.29E-08  (threshold= 1.00E-09)
 Smallest eigenvalue of S kept     2.29E-08  (threshold= 2.29E-08, 0 functions deleted, 376 kept)
 
 CPU time for CABS singles                        0.16 sec

 CABS-singles contribution of  -0.01596109 patched into reference energy.
 New reference energy        -263.78591225
 
 AO(A)-basis ORBITAL           loaded. Number of functions:     230
 RI(R)-basis CC-PVTZ/JKFIT     loaded. Number of functions:     376
 DF-basis AUG-CC-PVTZ/MP2FIT   loaded. Number of functions:     516

 Screening thresholds:   THRAO=  1.00D-10  THRMO=  1.00D-09  THRPROD=  1.00D-09
                         THRSW=  1.00D-05  THROV=  1.00D-12  THRF12=   1.00D-08

 CPU time for 3-index integral evaluation         1.74 sec
 CPU time for first  half transformation          0.24 sec ( 8067.3 MFLOP/sec)
 CPU time for second half transformation          0.02 sec ( 4912.9 MFLOP/sec)
 CPU time for sorting                             0.14 sec
 CPU time for fitting                             0.06 sec (23217.5 MFLOP/sec)
 CPU time for tilde quantities                    0.06 sec (30814.7 MFLOP/sec)
 CPU time for assembly                            0.86 sec (27473.0 MFLOP/sec)
 CPU time for tranop_f12                          0.95 sec (31757.3 MFLOP/sec)
 CPU time for f12 integrals (total)               6.38 sec
 F12-matrices built in  3 passes.
 F12-matrices built in  3 passes.
 F12-matrices built in  3 passes.
 F12-matrices built in  3 passes.
 FC-matrix built in  3 passes.
 CPU time for f12 matrices (total)                0.55 sec

 Diagonal F12 approximation with fixed coefficients:  TSING= 0.500,  TTRIP= 0.250 (scaled by -1/beta)

 DF-MP2-F12 energy corrections:
 ------------------------------
 Approx.                                    Singlet             Triplet             Total
 DF-MP2-F12/3*C(DX,FIX)                -0.097505009627     -0.016950836188     -0.114455845815
 DF-MP2-F12/3*C(FIX)                   -0.079905094335     -0.013407873884     -0.093312968219
 DF-MP2-F12/3C(FIX)                    -0.080263483239     -0.013430825593     -0.093694308832

 DF-MP2-F12 correlation energies:
 --------------------------------
 Approx.                                    Singlet             Triplet             Ecorr            Total Energy
 DF-MP2                                -0.537339455711     -0.342775702459     -0.880115158170   -264.666027407795
 DF-MP2-F12/3*C(DX,FIX)                -0.634844465338     -0.359726538647     -0.994571003985   -264.780483253611
 DF-MP2-F12/3*C(FIX)                   -0.617244550046     -0.356183576344     -0.973428126389   -264.759340376014
 DF-MP2-F12/3C(FIX)                    -0.617602938950     -0.356206528053     -0.973809467003   -264.759721716628

 SCS-DF-MP2 energies (F_SING= 1.20000  F_TRIP= 0.62222  F_PARALLEL= 0.33333):
 ----------------------------------------------------------------------------
 SCS-DF-MP2                            -0.858090006161   -264.644002255786
 SCS-DF-MP2-F12/3*C(DX,FIX)            -0.985643204675   -264.771555454300
 SCS-DF-MP2-F12/3*C(FIX)               -0.962318796446   -264.748231046071
 SCS-DF-MP2-F12/3C(FIX)                -0.962763144195   -264.748675393820
 Symmetry transformation completed.

 Number of N-1 electron functions:              12
 Number of N-2 electron functions:              78
 Number of singly external CSFs:              2568
 Number of doubly external CSFs:           3298596
 Total number of CSFs:                     3301165

 Pair and operator lists are different

 Length of J-op  integral file:             474.22 MB
 Length of K-op  integral file:             572.29 MB
 Length of 3-ext integral record:             0.00 MB

 For full I/O caching in triples, increase memory by 50.81 Mwords to 151.09 Mwords.

 Integral transformation finished. Total CPU:  12.42 sec, npass=  1  Memory used:  87.46 MW

 Reference energy:                   -263.78591225

 Adding F12 terms to K(Cij), methodcc=6,  factor=1.0

 ITER.      SQ.NORM     CORR.ENERGY   TOTAL ENERGY   ENERGY CHANGE        DEN1      VAR(S)    VAR(P)  DIIS     TIME
   1      1.20176217    -0.86220186  -264.64811411     0.01792970     0.04638262  0.71D-02  0.55D-02  1  1    28.21
   2      1.21598720    -0.85801764  -264.64392989     0.00418422    -0.02004595  0.85D-04  0.58D-03  2  2    35.13
   3      1.22129789    -0.85811174  -264.64402399    -0.00009410    -0.00235184  0.13D-03  0.32D-04  3  3    42.04
   4      1.22406819    -0.85798665  -264.64389890     0.00012508    -0.00140055  0.74D-05  0.40D-05  4  4    49.24
   5      1.22508170    -0.85794966  -264.64386191     0.00003700    -0.00036150  0.54D-06  0.28D-06  5  5    57.78
   6      1.22524120    -0.85792321  -264.64383546     0.00002645    -0.00000787  0.39D-07  0.23D-07  6  6    66.70
   7      1.22527001    -0.85792083  -264.64383308     0.00000238    -0.00000613  0.25D-08  0.39D-08  6  4    75.09
   8      1.22527030    -0.85792035  -264.64383260     0.00000048     0.00000192  0.38D-09  0.26D-09  6  1    83.58
   9      1.22527090    -0.85792042  -264.64383266    -0.00000007     0.00000055  0.25D-10  0.21D-10  6  2    92.06

 Norm of t1 vector:      0.10538177      S-energy:     0.00000004      T1 diagnostic:  0.01521055
                                                                       D1 diagnostic:  0.04464268

 Adding energy correction from Wij-K(Fij), methodcc=6  factor=1.0
 
  CCSD correlation energy              -0.857920415169
  MP2-F12 correction (uncoupled)       -0.092542631383
  C*T doubles correction               -0.001473688129
  f12b correction                       0.015403123213


 Total CPU time for triples:    243.22 sec


 RESULTS
 =======

  Reference energy                   -263.769951163584
  F12 singles correction               -0.015961086041

 F12 singles corrections added to reference energy

  New reference energy               -263.785912249625

  F12a singlet correction              -0.080466186684
  F12a triplet correction              -0.013550132828
  F12a total correction                -0.094016319512

 F12a corrections for ansatz F12/3C(FIX) added to CCSD energy
 
  CCSD-F12a singlet pair energy        -0.641549469446
  CCSD-F12a triplet pair energy        -0.310387300500
  CCSD-F12a correlation energy         -0.951936734681

  Triples (T) contribution             -0.037510156486
  Total correlation energy             -0.989446891167

  CCSD-F12a total energy             -264.737848984306
  CCSD[T]-F12a energy                -264.777876040491
  CCSD-T-F12a energy                 -264.774429376987
 !CCSD(T)-F12a total energy          -264.775359140792

 F12b corrections for ansatz F12/3C(FIX) added to CCSD(T)-F12a energy

  CCSD-F12b singlet pair energy        -0.627370242440
  CCSD-F12b triplet pair energy        -0.309163404294
  CCSD-F12b correlation energy         -0.936533611468

  Triples (T) contribution             -0.037510156486
  Total correlation energy             -0.974043767955

  CCSD-F12b total energy             -264.722445861093
  CCSD[T]-F12b energy                -264.762472917278
  CCSD-T-F12b energy                 -264.759026253774
 !CCSD(T)-F12b total energy          -264.759956017580

 Timing summary (sec):

 STEP                 CPU(USER)    SYS     CPU(TOT)    WALL
 Transformation         12.53      1.14     13.67     13.66
 CCSD iterations        70.88      2.89     73.77     74.69
 Triples               243.22      2.46    245.68    245.58
 MP2-F12                 8.67      1.34     10.01     10.01
 F12b energy             5.05      0.03      5.08      5.08

 Program statistics:

 Available memory in ccsd:                99998934
 Min. memory needed in ccsd:               8644845
 Max. memory used in ccsd:                11598633
 Max. memory used in cckext:               8768967 (10 integral passes)



 **********************************************************************************************************************************
 DATASETS  * FILE   NREC   LENGTH (MB)   RECORD NAMES
              1      20      527.84       500      610      700      900      950      970     1000      129      960     1100   
                                          VAR    BASINP    GEOM    SYMINP    ZMAT    AOBASIS   BASIS     P2S    ABASIS      S 
                                         1400     1410     1200     1210     1080     1600     1650     1700      960(1)  1380   
                                           T        V       H0       H01     AOSYM     SMH    MOLCAS    OPER    ABASIS    JKOP   

              2       5        2.50       700     1000     2100     7360     7350   
                                         GEOM     BASIS     RHF    F12ABS    EF12   

 PROGRAMS   *        TOTAL   CCSD(T)        HF       INT
 CPU TIMES  *       353.74    340.46      7.63      5.59
 REAL TIME  *       363.66 SEC
 DISK USED  *         2.34 GB      
 SF USED    *         1.91 GB      
 GA USED    *         2.40 MB       (max)       0.00 MB       (current)
 **********************************************************************************************************************************

     CCSD(T)-F12        HF-SCF  
   -264.75995602   -263.76995116
 **********************************************************************************************************************************
 Variable memory released
