
 Primary working directories    : /scratch/kee
 Secondary working directories  : /scratch/kee
 Wavefunction directory         : /home/kee/wfu/
 Main file repository           : /scratch/kee/

 ARCHNAME  : Linux/x86_64
 FC        : /opt/intel/composer_xe_2015.0.090/bin/intel64/ifort
 FCVERSION : 15.0.0
 BLASLIB   : -L/opt/intel/mkl/lib/intel64 -lmkl_intel_ilp64 -lmkl_sequential -lmkl_core
 id        : emory

 Nodes     nprocs
 node18       3
 Number of processes for MPI-2 version of Molpro:   nprocs(total)=    4   nprocs(compute)=    3   nprocs(helper)=    1
 ga_uses_ma=false, calling ma_init with nominal heap.
 GA-space will be limited to   8.0 MW (determined by -G option)

 Using customized tuning parameters: mindgm=7; mindgv=32; mindgc=1; mindgr=1; noblas=0; mincuda=1000; minvec=7
 default implementation of scratch files=sf  

 ***,co2h2o
 memory,100,m
 basis avtz
 geomtype = xyz
 geometry = {
 6
       0.00000000
 O     0.02747900    1.16001200    0.00000000
 O    -0.00936500   -1.16396300    0.00000000
 O     6.47531549   -0.02864799    0.00000000
 H     6.86441049    0.41262601    0.75746400
 H     6.86441049    0.41262601   -0.75746400
 C     0.02536600   -0.00312200    0.00000000
 }
 hf
 ccsd(t)-f12
 ---

 Variables initialized (665), CPU time= 0.01 sec
 Commands  initialized (462), CPU time= 0.01 sec, 486 directives.
 Default parameters read. Elapsed time= 0.05 sec

 Checking input...
 Passed
1


                                         ***  PROGRAM SYSTEM MOLPRO  ***
                         Copyright, University College Cardiff Consultants Limited, 2008

                                    Version 2010.1 linked 9 Dec 2014 15:06:28 


 **********************************************************************************************************************************
 LABEL *   co2h2o                                                                        
 Linux-2.6.32-504.el6.x86_64/node18(x86_64) 64 bit mpp version                           DATE: 15-Dec-16          TIME: 00:23:51  
 **********************************************************************************************************************************

 Patch level:      19
 **********************************************************************************************************************************

 Variable memory set to  100000000 words,  buffer space   230000 words

 SETTING BASIS          =    AVTZ
 SETTING GEOMTYPE       =    XYZ

Geometry recognized as XYZ



 Recomputing integrals since basis changed


 Using spherical harmonics

 Library entry O      S aug-cc-pVTZ          selected for orbital group  1
 Library entry O      P aug-cc-pVTZ          selected for orbital group  1
 Library entry O      D aug-cc-pVTZ          selected for orbital group  1
 Library entry O      F aug-cc-pVTZ          selected for orbital group  1
 Library entry H      S aug-cc-pVTZ          selected for orbital group  2
 Library entry H      P aug-cc-pVTZ          selected for orbital group  2
 Library entry H      D aug-cc-pVTZ          selected for orbital group  2
 Library entry C      S aug-cc-pVTZ          selected for orbital group  3
 Library entry C      P aug-cc-pVTZ          selected for orbital group  3
 Library entry C      D aug-cc-pVTZ          selected for orbital group  3
 Library entry C      F aug-cc-pVTZ          selected for orbital group  3

1PROGRAM * SEWARD (Integral evaluation for generally contracted gaussian basis sets)     Author: Roland Lindh, 1990

 Geometry written to block  1 of record 700


 Point group  Cs  



 ATOMIC COORDINATES

 NR  ATOM    CHARGE       X              Y              Z

   1  O       8.00    0.051927784    2.192104989    0.000000000
   2  O       8.00   -0.017697285   -2.199571297    0.000000000
   3  O       8.00   12.236572891   -0.054136855    0.000000000
   4  H       1.00   12.971855880    0.779750154    1.431399514
   5  H       1.00   12.971855880    0.779750154   -1.431399514
   6  C       6.00    0.047934793   -0.005899725    0.000000000

 Bond lengths in Bohr (Angstrom)

 1-6  2.198008341  2-6  2.194653170  3-4  1.812432947  3-5  1.812432947
     (1.163135919)     (1.161360439)     (0.959098208)     (0.959098208)

 Bond angles

  1-6-2  178.39037465   4-3-5  104.32746287

 NUCLEAR CHARGE:                   32
 NUMBER OF PRIMITIVE AOS:         322
 NUMBER OF SYMMETRY AOS:          282
 NUMBER OF CONTRACTIONS:          230   ( 143A'  +  87A"  )
 NUMBER OF CORE ORBITALS:           4   (   4A'  +   0A"  )
 NUMBER OF VALENCE ORBITALS:       18   (  13A'  +   5A"  )


 NUCLEAR REPULSION ENERGY   85.04422879


 Eigenvalues of metric

         1 0.349E-03 0.378E-03 0.393E-03 0.899E-03 0.922E-03 0.175E-02 0.180E-02 0.317E-02
         2 0.395E-03 0.166E-02 0.318E-02 0.348E-02 0.508E-02 0.622E-02 0.100E-01 0.124E-01


 Contracted 2-electron integrals neglected if value below      1.0D-11
 AO integral compression algorithm  1   Integral accuracy      1.0D-11

     375.914 MB (compressed) written to integral file ( 23.7%)

     Node minimum: 118.751 MB, node maximum: 131.334 MB


 NUMBER OF SORTED TWO-ELECTRON INTEGRALS:   59530350.     BUFFER LENGTH:  32768
 NUMBER OF SEGMENTS:   4  SEGMENT LENGTH:   15999984      RECORD LENGTH: 524288

 Memory used in sort:      16.56 MW

 SORT1 READ   198106595. AND WROTE    26539651. INTEGRALS IN     78 RECORDS. CPU TIME:     2.16 SEC, REAL TIME:     2.46 SEC
 SORT2 READ    80047394. AND WROTE   178576926. INTEGRALS IN   1440 RECORDS. CPU TIME:     0.83 SEC, REAL TIME:     1.05 SEC

 Node minimum:    59520934.  Node maximum:    59530350. integrals

 OPERATOR DM      FOR CENTER  0  COORDINATES:    0.000000    0.000000    0.000000


 **********************************************************************************************************************************
 DATASETS  * FILE   NREC   LENGTH (MB)   RECORD NAMES
              1      18        3.71       500      610      700      900      950      970     1000      129      960     1100   
                                          VAR    BASINP    GEOM    SYMINP    ZMAT    AOBASIS   BASIS     P2S    ABASIS      S 
                                         1400     1410     1200     1210     1080     1600     1650     1700   
                                           T        V       H0       H01     AOSYM     SMH    MOLCAS    OPER   

 PROGRAMS   *        TOTAL       INT
 CPU TIMES  *         5.89      5.78
 REAL TIME  *         7.09 SEC
 DISK USED  *         1.32 GB      
 GA USED    *         0.00 MB       (max)       0.00 MB       (current)
 **********************************************************************************************************************************

1PROGRAM * RHF-SCF (CLOSED SHELL)       Authors: W. Meyer, H.-J. Werner


 NUMBER OF ELECTRONS:      16+   16-
 CONVERGENCE THRESHOLDS:    1.00E-05 (Density)    1.00E-07 (Energy)
 MAX. NUMBER OF ITERATIONS:       60
 INTERPOLATION TYPE:            DIIS
 INTERPOLATION STEPS:              2 (START)      1 (STEP)
 LEVEL SHIFTS:                  0.00 (CLOSED)  0.00 (OPEN) 



 Orbital guess generated from atomic densities. Full valence occupancy:   17   5

 Molecular orbital dump at record        2100.2

 Initial alpha occupancy:  13   3
 Initial beta  occupancy:  13   3
 Wave function symmetry:    1

 ITERATION    DDIFF          GRAD             ENERGY        2-EL.EN.            DIPOLE MOMENTS         DIIS
    1      0.000D+00      0.000D+00      -263.66043462    365.691372    0.79965    0.84411    0.00000    0
    2      0.000D+00      0.642D-02      -263.72571403    361.109650    0.46623    0.49218    0.00000    1
    3      0.103D-01      0.436D-02      -263.76899632    363.670766    0.55044    0.57680    0.00000    2
    4      0.424D-02      0.410D-03      -263.76949161    363.458599    0.55236    0.57986    0.00000    3
    5      0.493D-03      0.119D-03      -263.76954969    363.460813    0.54886    0.57602    0.00000    4
    6      0.185D-03      0.482D-04      -263.76955688    363.475282    0.54930    0.57641    0.00000    5
    7      0.614D-04      0.118D-04      -263.76955761    363.466917    0.54901    0.57616    0.00000    6
    8      0.201D-04      0.262D-05      -263.76955766    363.468208    0.54901    0.57609    0.00000    7
    9      0.547D-05      0.953D-06      -263.76955766    363.468023    0.54899    0.57614    0.00000    0

 Final occupancy:  13   3

 !RHF STATE 1.1 Energy               -263.769557661694
 Nuclear energy                        85.04422879
 One-electron energy                 -530.54779811
 Two-electron energy                  181.73401166
 Virial quotient                       -1.00183403
 !RHF STATE 1.1 Dipole moment           0.54899337     0.57613813     0.00000000
 Dipole moment /Debye                   1.39531057     1.46430114     0.00000000

 Orbital energies:

         1.1          2.1          3.1          4.1          5.1          6.1          7.1          8.1          9.1         10.1
    -20.649865   -20.649541   -20.568763   -11.458552    -1.527325    -1.474231    -1.353941    -0.797645    -0.739886    -0.711333

        11.1         12.1         13.1         14.1         15.1
     -0.586178    -0.541038    -0.511450     0.027948     0.052671

         1.2          2.2          3.2          4.2          5.2
     -0.717627    -0.711420    -0.541094     0.046519     0.077691


 **********************************************************************************************************************************
 DATASETS  * FILE   NREC   LENGTH (MB)   RECORD NAMES
              1      18        3.72       500      610      700      900      950      970     1000      129      960     1100   
                                          VAR    BASINP    GEOM    SYMINP    ZMAT    AOBASIS   BASIS     P2S    ABASIS      S 
                                         1400     1410     1200     1210     1080     1600     1650     1700   
                                           T        V       H0       H01     AOSYM     SMH    MOLCAS    OPER   

              2       3        0.94       700     1000     2100   
                                         GEOM     BASIS     RHF  

 PROGRAMS   *        TOTAL        HF       INT
 CPU TIMES  *         9.51      3.61      5.78
 REAL TIME  *        10.94 SEC
 DISK USED  *         1.34 GB      
 SF USED    *         0.11 MB      
 GA USED    *         0.00 MB       (max)       0.00 MB       (current)
 **********************************************************************************************************************************


1PROGRAM * CCSD (Closed-shell coupled cluster)     Authors: C. Hampel, H.-J. Werner, 1991, M. Deegan, P.J. Knowles, 1992

                                  CCSD-F12 implementation by  H.-J. Werner, 2007

                   Density fitting integral evaluation by F.R. Manby, 2003,2007, G. Knizia, 2010

 Basis set CC-PVTZ/JKFIT generated.      Number of basis functions:   376 
 Basis set AUG-CC-PVTZ/MP2FIT generated. Number of basis functions:   516 

 Convergence thresholds:  THRVAR = 1.00D-08  THRDEN = 1.00D-06

 CCSD(T)     terms to be evaluated (factor= 1.000)


 Number of core orbitals:           4 (   4   0 )
 Number of closed-shell orbitals:  12 (   9   3 )
 Number of external orbitals:     214 ( 130  84 )

 Molecular orbitals read from record     2100.2  Type=RHF/CANONICAL (state 1.1)

 MP2-F12 correlation treatment (H.-J. Werner, 2006)
 --------------------------------------------------

 Using MP2-F12 with ansatz 3C(FIX)

 Using projected zeroth-order Hamiltonian (+Z)

 FOCKRIB=T FOCKRIC=T FOCKRIP=T CABSP=T CABSA=T CABSK=T CABSF=T GBC=F EBC=F DMAT=T NOFIK=T NOPAO=1 SOLVE=-1  USEPAO=0
 EXCH_A= T EXCH_B= F EXCH_C= F EXCH_P= F
 
 Geminal basis:    OPTFULL  GEM_TYPE=SLATER  BETA=1.0  NGEM=6

 Optimizing Gaussian exponents for each gem_beta

 Geminal optimization for beta= 1.0000
 Weight function:   m=0, omega= 1.4646

 Augmented Hessian optimization of geminal fit. Trust ratio= 0.40000
 Convergence reached after   2 iterations. Final gradient= 8.24D-16, Step= 4.32D-06, Delta= 1.28D-09
 
 Alpha:                 0.19532     0.81920     2.85917     9.50073    35.69989   197.79328
 Coeff:                 0.27070     0.30552     0.18297     0.10986     0.06810     0.04224
 

 Symmetry turned off. Reference energy:       -263.769557661695

 All pairs explicitly correlated. Number of r12-pairs:           78
 
 AO(A)-basis ORBITAL           loaded. Number of functions:     230
 RI(R)-basis CC-PVTZ/JKFIT     loaded. Number of functions:     376
 DF-basis CC-PVTZ/JKFIT        loaded. Number of functions:     376

 Screening thresholds:   THRAO=  1.00D-10  THRMO=  1.00D-09  THRPROD=  1.00D-09
                         THRSW=  1.00D-05  THROV=  1.00D-12  THRF12=   1.00D-08

 CPU time for Fock operators                      0.97 sec
 
 Construction of ABS:
 Smallest eigenvalue of S          2.57E-04  (threshold= 1.00E-08)
 Ratio eigmin/eigmax               1.83E-06  (threshold= 1.00E-09)
 Smallest eigenvalue of S kept     2.57E-04  (threshold= 2.57E-04, 0 functions deleted, 376 kept)
 
 Construction of CABS:
 Smallest eigenvalue of S          2.30E-08  (threshold= 1.00E-08)
 Ratio eigmin/eigmax               2.30E-08  (threshold= 1.00E-09)
 Smallest eigenvalue of S kept     2.30E-08  (threshold= 2.30E-08, 0 functions deleted, 376 kept)
 
 CPU time for CABS singles                        0.18 sec

 CABS-singles contribution of  -0.01592249 patched into reference energy.
 New reference energy        -263.78548015
 
 AO(A)-basis ORBITAL           loaded. Number of functions:     230
 RI(R)-basis CC-PVTZ/JKFIT     loaded. Number of functions:     376
 DF-basis AUG-CC-PVTZ/MP2FIT   loaded. Number of functions:     516

 Screening thresholds:   THRAO=  1.00D-10  THRMO=  1.00D-09  THRPROD=  1.00D-09
                         THRSW=  1.00D-05  THROV=  1.00D-12  THRF12=   1.00D-08

 CPU time for 3-index integral evaluation         2.14 sec
 CPU time for first  half transformation          0.27 sec ( 9221.0 MFLOP/sec)
 CPU time for second half transformation          0.02 sec ( 4872.2 MFLOP/sec)
 CPU time for sorting                             0.15 sec
 CPU time for fitting                             0.06 sec (23217.5 MFLOP/sec)
 CPU time for tilde quantities                    0.05 sec (36977.6 MFLOP/sec)
 CPU time for assembly                            0.86 sec (27813.5 MFLOP/sec)
 CPU time for tranop_f12                          0.95 sec (31658.8 MFLOP/sec)
 CPU time for f12 integrals (total)               6.70 sec
 F12-matrices built in  3 passes.
 F12-matrices built in  3 passes.
 F12-matrices built in  3 passes.
 F12-matrices built in  3 passes.
 FC-matrix built in  3 passes.
 CPU time for f12 matrices (total)                0.61 sec

 Diagonal F12 approximation with fixed coefficients:  TSING= 0.500,  TTRIP= 0.250 (scaled by -1/beta)

 DF-MP2-F12 energy corrections:
 ------------------------------
 Approx.                                    Singlet             Triplet             Total
 DF-MP2-F12/3*C(DX,FIX)                -0.097440891684     -0.016931827874     -0.114372719558
 DF-MP2-F12/3*C(FIX)                   -0.079857459541     -0.013394253539     -0.093251713081
 DF-MP2-F12/3C(FIX)                    -0.080219036301     -0.013417767980     -0.093636804281

 DF-MP2-F12 correlation energies:
 --------------------------------
 Approx.                                    Singlet             Triplet             Ecorr            Total Energy
 DF-MP2                                -0.537777858697     -0.343107979340     -0.880885838037   -264.666365985363
 DF-MP2-F12/3*C(DX,FIX)                -0.635218750381     -0.360039807214     -0.995258557595   -264.780738704921
 DF-MP2-F12/3*C(FIX)                   -0.617635318238     -0.356502232879     -0.974137551117   -264.759617698443
 DF-MP2-F12/3C(FIX)                    -0.617996894998     -0.356525747320     -0.974522642318   -264.760002789644

 SCS-DF-MP2 energies (F_SING= 1.20000  F_TRIP= 0.62222  F_PARALLEL= 0.33333):
 ----------------------------------------------------------------------------
 SCS-DF-MP2                            -0.858822839803   -264.644302987129
 SCS-DF-MP2-F12/3*C(DX,FIX)            -0.986287269390   -264.771767416717
 SCS-DF-MP2-F12/3*C(FIX)               -0.962985993455   -264.748466140781
 SCS-DF-MP2-F12/3C(FIX)                -0.963434516775   -264.748914664101

 Symmetry restored.
 Symmetry transformation completed.

 Number of N-1 electron functions:              12
 Number of N-2 electron functions:              78
 Number of singly external CSFs:              1422
 Number of doubly external CSFs:           1668984
 Total number of CSFs:                     1670407

 Pair and operator lists are different

 Length of J-op  integral file:             466.33 MB
 Length of K-op  integral file:             525.76 MB
 Length of 3-ext integral record:             0.00 MB

 Memory could be reduced to 76.19 Mwords without degradation in triples

 Integral transformation finished. Total CPU:   4.18 sec, npass=  1  Memory used:  26.50 MW

 Reference energy:                   -263.78548015

 Adding F12 terms to K(Cij), methodcc=6,  factor=1.0

 ITER.      SQ.NORM     CORR.ENERGY   TOTAL ENERGY   ENERGY CHANGE        DEN1      VAR(S)    VAR(P)  DIIS     TIME
   1      1.20219401    -0.86282870  -264.64830885     0.01807353     0.04671564  0.72D-02  0.56D-02  1  1    15.74
   2      1.21651343    -0.85860171  -264.64408186     0.00422700    -0.02015937  0.86D-04  0.59D-03  2  2    18.44
   3      1.22187925    -0.85869851  -264.64417866    -0.00009680    -0.00236643  0.13D-03  0.32D-04  3  3    21.14
   4      1.22468366    -0.85857062  -264.64405077     0.00012788    -0.00141238  0.76D-05  0.41D-05  4  4    23.88
   5      1.22571443    -0.85853296  -264.64401311     0.00003766    -0.00036659  0.56D-06  0.29D-06  5  5    26.66
   6      1.22587673    -0.85850609  -264.64398624     0.00002687    -0.00000806  0.40D-07  0.24D-07  6  6    29.43
   7      1.22590613    -0.85850367  -264.64398381     0.00000243    -0.00000622  0.26D-08  0.40D-08  6  4    32.19
   8      1.22590645    -0.85850318  -264.64398332     0.00000049     0.00000194  0.39D-09  0.27D-09  6  1    34.96
   9      1.22590707    -0.85850324  -264.64398339    -0.00000007     0.00000056  0.26D-10  0.21D-10  6  2    37.71

 Norm of t1 vector:      0.10599622      S-energy:    -0.00000001      T1 diagnostic:  0.01529924
                                                                       D1 diagnostic:  0.04496364

 Adding energy correction from Wij-K(Fij), methodcc=6  factor=1.0
 
  CCSD correlation energy              -0.858503241351
  MP2-F12 correction (uncoupled)       -0.092478648476
  C*T doubles correction               -0.001476189372
  f12b correction                       0.015406587398


 Total CPU time for triples:     73.10 sec


 RESULTS
 =======

  Reference energy                   -263.769557661695
  F12 singles correction               -0.015922485631

 F12 singles corrections added to reference energy

  New reference energy               -263.785480147326

  F12a singlet correction              -0.080418653379
  F12a triplet correction              -0.013536184468
  F12a total correction                -0.093954837848

 F12a corrections for ansatz F12/3C(FIX) added to CCSD energy
 
  CCSD-F12a singlet pair energy        -0.641940021469
  CCSD-F12a triplet pair energy        -0.310518047327
  CCSD-F12a correlation energy         -0.952458079199

  Triples (T) contribution             -0.037649608651
  Total correlation energy             -0.990107687850

  CCSD-F12a total energy             -264.737938226525
  CCSD[T]-F12a energy                -264.778132498689
  CCSD-T-F12a energy                 -264.774649870655
 !CCSD(T)-F12a total energy          -264.775587835176

 F12b corrections for ansatz F12/3C(FIX) added to CCSD(T)-F12a energy

  CCSD-F12b singlet pair energy        -0.627756653296
  CCSD-F12b triplet pair energy        -0.309294828103
  CCSD-F12b correlation energy         -0.937051491801

  Triples (T) contribution             -0.037649608651
  Total correlation energy             -0.974701100452

  CCSD-F12b total energy             -264.722531639127
  CCSD[T]-F12b energy                -264.762725911291
  CCSD-T-F12b energy                 -264.759243283257
 !CCSD(T)-F12b total energy          -264.760181247778

 Timing summary (sec):

 STEP                 CPU(USER)    SYS     CPU(TOT)    WALL
 Transformation          4.20      0.54      4.74      4.75
 CCSD iterations        24.54      1.47     26.01     26.02
 Triples                73.10      1.53     74.63     74.60
 MP2-F12                 8.99      1.23     10.22     10.22
 F12b energy             1.75      0.03      1.78      1.78

 Program statistics:

 Available memory in ccsd:                99998934
 Min. memory needed in ccsd:               4419579
 Max. memory used in ccsd:                 5922321
 Max. memory used in cckext:               6231049 (10 integral passes)



 **********************************************************************************************************************************
 DATASETS  * FILE   NREC   LENGTH (MB)   RECORD NAMES
              1      20      268.24       500      610      700      900      950      970     1000      129      960     1100   
                                          VAR    BASINP    GEOM    SYMINP    ZMAT    AOBASIS   BASIS     P2S    ABASIS      S 
                                         1400     1410     1200     1210     1080     1600     1650     1700      960(1)  1380   
                                           T        V       H0       H01     AOSYM     SMH    MOLCAS    OPER    ABASIS    JKOP   

              2       5        1.51       700     1000     2100     7360     7350   
                                         GEOM     BASIS     RHF    F12ABS    EF12   

 PROGRAMS   *        TOTAL   CCSD(T)        HF       INT
 CPU TIMES  *       122.11    112.61      3.61      5.78
 REAL TIME  *       128.54 SEC
 DISK USED  *         1.78 GB      
 SF USED    *         1.52 GB      
 GA USED    *         2.40 MB       (max)       0.00 MB       (current)
 **********************************************************************************************************************************

     CCSD(T)-F12        HF-SCF  
   -264.76018125   -263.76955766
 **********************************************************************************************************************************
 Variable memory released
