
 Primary working directories    : /scratch/kee
 Secondary working directories  : /scratch/kee
 Wavefunction directory         : /home/kee/wfu/
 Main file repository           : /scratch/kee/

 ARCHNAME  : Linux/x86_64
 FC        : /opt/intel/composer_xe_2015.0.090/bin/intel64/ifort
 FCVERSION : 15.0.0
 BLASLIB   : -L/opt/intel/mkl/lib/intel64 -lmkl_intel_ilp64 -lmkl_sequential -lmkl_core
 id        : emory

 Nodes     nprocs
 node18       3
 Number of processes for MPI-2 version of Molpro:   nprocs(total)=    4   nprocs(compute)=    3   nprocs(helper)=    1
 ga_uses_ma=false, calling ma_init with nominal heap.
 GA-space will be limited to   8.0 MW (determined by -G option)

 Using customized tuning parameters: mindgm=7; mindgv=32; mindgc=1; mindgr=1; noblas=0; mincuda=1000; minvec=7
 default implementation of scratch files=sf  

 ***,co2h2o
 memory,100,m
 basis avtz
 geomtype = xyz
 geometry = {
 6
       0.00000000
 O     0.02747900    1.16001200    0.00000000
 O    -0.00936500   -1.16396300    0.00000000
 O     5.82532058   -0.02607560    0.00000000
 H     6.21441558    0.41519840    0.75746400
 H     6.21441558    0.41519840   -0.75746400
 C     0.02536600   -0.00312200    0.00000000
 }
 hf
 ccsd(t)-f12
 ---

 Variables initialized (665), CPU time= 0.00 sec
 Commands  initialized (462), CPU time= 0.01 sec, 486 directives.
 Default parameters read. Elapsed time= 0.03 sec

 Checking input...
 Passed
1


                                         ***  PROGRAM SYSTEM MOLPRO  ***
                         Copyright, University College Cardiff Consultants Limited, 2008

                                    Version 2010.1 linked 9 Dec 2014 15:06:28 


 **********************************************************************************************************************************
 LABEL *   co2h2o                                                                        
 Linux-2.6.32-504.el6.x86_64/node18(x86_64) 64 bit mpp version                           DATE: 14-Dec-16          TIME: 23:48:37  
 **********************************************************************************************************************************

 Patch level:      19
 **********************************************************************************************************************************

 Variable memory set to  100000000 words,  buffer space   230000 words

 SETTING BASIS          =    AVTZ
 SETTING GEOMTYPE       =    XYZ

Geometry recognized as XYZ



 Recomputing integrals since basis changed


 Using spherical harmonics

 Library entry O      S aug-cc-pVTZ          selected for orbital group  1
 Library entry O      P aug-cc-pVTZ          selected for orbital group  1
 Library entry O      D aug-cc-pVTZ          selected for orbital group  1
 Library entry O      F aug-cc-pVTZ          selected for orbital group  1
 Library entry H      S aug-cc-pVTZ          selected for orbital group  2
 Library entry H      P aug-cc-pVTZ          selected for orbital group  2
 Library entry H      D aug-cc-pVTZ          selected for orbital group  2
 Library entry C      S aug-cc-pVTZ          selected for orbital group  3
 Library entry C      P aug-cc-pVTZ          selected for orbital group  3
 Library entry C      D aug-cc-pVTZ          selected for orbital group  3
 Library entry C      F aug-cc-pVTZ          selected for orbital group  3

1PROGRAM * SEWARD (Integral evaluation for generally contracted gaussian basis sets)     Author: Roland Lindh, 1990

 Geometry written to block  1 of record 700


 Point group  Cs  



 ATOMIC COORDINATES

 NR  ATOM    CHARGE       X              Y              Z

   1  O       8.00    0.051927784    2.192104989    0.000000000
   2  O       8.00   -0.017697285   -2.199571297    0.000000000
   3  O       8.00   11.008260524   -0.049275743    0.000000000
   4  H       1.00   11.743543513    0.784611266    1.431399514
   5  H       1.00   11.743543513    0.784611266   -1.431399514
   6  C       6.00    0.047934793   -0.005899725    0.000000000

 Bond lengths in Bohr (Angstrom)

 1-6  2.198008341  2-6  2.194653170  3-4  1.812432947  3-5  1.812432947
     (1.163135919)     (1.161360439)     (0.959098208)     (0.959098208)

 Bond angles

  1-6-2  178.39037465   4-3-5  104.32746287

 NUCLEAR CHARGE:                   32
 NUMBER OF PRIMITIVE AOS:         322
 NUMBER OF SYMMETRY AOS:          282
 NUMBER OF CONTRACTIONS:          230   ( 143A'  +  87A"  )
 NUMBER OF CORE ORBITALS:           4   (   4A'  +   0A"  )
 NUMBER OF VALENCE ORBITALS:       18   (  13A'  +   5A"  )


 NUCLEAR REPULSION ENERGY   86.93154475


 Eigenvalues of metric

         1 0.349E-03 0.368E-03 0.397E-03 0.899E-03 0.922E-03 0.175E-02 0.179E-02 0.317E-02
         2 0.394E-03 0.165E-02 0.318E-02 0.348E-02 0.507E-02 0.622E-02 0.100E-01 0.124E-01


 Contracted 2-electron integrals neglected if value below      1.0D-11
 AO integral compression algorithm  1   Integral accuracy      1.0D-11

     415.498 MB (compressed) written to integral file ( 25.2%)

     Node minimum: 124.781 MB, node maximum: 149.684 MB


 NUMBER OF SORTED TWO-ELECTRON INTEGRALS:   59530350.     BUFFER LENGTH:  32768
 NUMBER OF SEGMENTS:   4  SEGMENT LENGTH:   15999984      RECORD LENGTH: 524288

 Memory used in sort:      16.56 MW

 SORT1 READ   205977527. AND WROTE    30264639. INTEGRALS IN     89 RECORDS. CPU TIME:     2.44 SEC, REAL TIME:     2.76 SEC
 SORT2 READ    91315857. AND WROTE   178576926. INTEGRALS IN   1614 RECORDS. CPU TIME:     0.86 SEC, REAL TIME:     1.09 SEC

 Node minimum:    59520934.  Node maximum:    59530350. integrals

 OPERATOR DM      FOR CENTER  0  COORDINATES:    0.000000    0.000000    0.000000


 **********************************************************************************************************************************
 DATASETS  * FILE   NREC   LENGTH (MB)   RECORD NAMES
              1      18        3.71       500      610      700      900      950      970     1000      129      960     1100   
                                          VAR    BASINP    GEOM    SYMINP    ZMAT    AOBASIS   BASIS     P2S    ABASIS      S 
                                         1400     1410     1200     1210     1080     1600     1650     1700   
                                           T        V       H0       H01     AOSYM     SMH    MOLCAS    OPER   

 PROGRAMS   *        TOTAL       INT
 CPU TIMES  *         6.82      6.76
 REAL TIME  *         7.56 SEC
 DISK USED  *         1.50 GB      
 GA USED    *         0.00 MB       (max)       0.00 MB       (current)
 **********************************************************************************************************************************

1PROGRAM * RHF-SCF (CLOSED SHELL)       Authors: W. Meyer, H.-J. Werner


 NUMBER OF ELECTRONS:      16+   16-
 CONVERGENCE THRESHOLDS:    1.00E-05 (Density)    1.00E-07 (Energy)
 MAX. NUMBER OF ITERATIONS:       60
 INTERPOLATION TYPE:            DIIS
 INTERPOLATION STEPS:              2 (START)      1 (STEP)
 LEVEL SHIFTS:                  0.00 (CLOSED)  0.00 (OPEN) 



 Orbital guess generated from atomic densities. Full valence occupancy:   17   5

 Molecular orbital dump at record        2100.2

 Initial alpha occupancy:  13   3
 Initial beta  occupancy:  13   3
 Wave function symmetry:    1

 ITERATION    DDIFF          GRAD             ENERGY        2-EL.EN.            DIPOLE MOMENTS         DIIS
    1      0.000D+00      0.000D+00      -263.66064098    369.506535    0.79967    0.84413    0.00000    0
    2      0.000D+00      0.642D-02      -263.72588349    364.915430    0.47170    0.48955    0.00000    1
    3      0.103D-01      0.436D-02      -263.76908751    367.476094    0.55431    0.57565    0.00000    2
    4      0.424D-02      0.411D-03      -263.76958278    367.264566    0.55620    0.57829    0.00000    3
    5      0.493D-03      0.119D-03      -263.76964087    367.266364    0.55277    0.57478    0.00000    4
    6      0.185D-03      0.483D-04      -263.76964807    367.280926    0.55322    0.57497    0.00000    5
    7      0.615D-04      0.119D-04      -263.76964880    367.272549    0.55293    0.57482    0.00000    6
    8      0.202D-04      0.265D-05      -263.76964885    367.273812    0.55294    0.57467    0.00000    7
    9      0.547D-05      0.112D-05      -263.76964886    367.273653    0.55292    0.57479    0.00000    0

 Final occupancy:  13   3

 !RHF STATE 1.1 Energy               -263.769648855833
 Nuclear energy                        86.93154475
 One-electron energy                 -534.33802024
 Two-electron energy                  183.63682663
 Virial quotient                       -1.00183516
 !RHF STATE 1.1 Dipole moment           0.55291917     0.57478516     0.00000000
 Dipole moment /Debye                   1.40528830     1.46086248     0.00000000

 Orbital energies:

         1.1          2.1          3.1          4.1          5.1          6.1          7.1          8.1          9.1         10.1
    -20.648919   -20.648675   -20.569177   -11.457673    -1.526417    -1.473332    -1.354359    -0.796772    -0.739023    -0.710398

        11.1         12.1         13.1         14.1         15.1
     -0.586627    -0.540141    -0.511883     0.027872     0.054256

         1.2          2.2          3.2          4.2          5.2
     -0.718044    -0.710529    -0.540216     0.046335     0.079238


 **********************************************************************************************************************************
 DATASETS  * FILE   NREC   LENGTH (MB)   RECORD NAMES
              1      18        3.72       500      610      700      900      950      970     1000      129      960     1100   
                                          VAR    BASINP    GEOM    SYMINP    ZMAT    AOBASIS   BASIS     P2S    ABASIS      S 
                                         1400     1410     1200     1210     1080     1600     1650     1700   
                                           T        V       H0       H01     AOSYM     SMH    MOLCAS    OPER   

              2       3        0.94       700     1000     2100   
                                         GEOM     BASIS     RHF  

 PROGRAMS   *        TOTAL        HF       INT
 CPU TIMES  *        10.74      3.92      6.76
 REAL TIME  *        11.67 SEC
 DISK USED  *         1.53 GB      
 SF USED    *         0.11 MB      
 GA USED    *         0.00 MB       (max)       0.00 MB       (current)
 **********************************************************************************************************************************


1PROGRAM * CCSD (Closed-shell coupled cluster)     Authors: C. Hampel, H.-J. Werner, 1991, M. Deegan, P.J. Knowles, 1992

                                  CCSD-F12 implementation by  H.-J. Werner, 2007

                   Density fitting integral evaluation by F.R. Manby, 2003,2007, G. Knizia, 2010

 Basis set CC-PVTZ/JKFIT generated.      Number of basis functions:   376 
 Basis set AUG-CC-PVTZ/MP2FIT generated. Number of basis functions:   516 

 Convergence thresholds:  THRVAR = 1.00D-08  THRDEN = 1.00D-06

 CCSD(T)     terms to be evaluated (factor= 1.000)


 Number of core orbitals:           4 (   4   0 )
 Number of closed-shell orbitals:  12 (   9   3 )
 Number of external orbitals:     214 ( 130  84 )

 Molecular orbitals read from record     2100.2  Type=RHF/CANONICAL (state 1.1)

 MP2-F12 correlation treatment (H.-J. Werner, 2006)
 --------------------------------------------------

 Using MP2-F12 with ansatz 3C(FIX)

 Using projected zeroth-order Hamiltonian (+Z)

 FOCKRIB=T FOCKRIC=T FOCKRIP=T CABSP=T CABSA=T CABSK=T CABSF=T GBC=F EBC=F DMAT=T NOFIK=T NOPAO=1 SOLVE=-1  USEPAO=0
 EXCH_A= T EXCH_B= F EXCH_C= F EXCH_P= F
 
 Geminal basis:    OPTFULL  GEM_TYPE=SLATER  BETA=1.0  NGEM=6

 Optimizing Gaussian exponents for each gem_beta

 Geminal optimization for beta= 1.0000
 Weight function:   m=0, omega= 1.4646

 Augmented Hessian optimization of geminal fit. Trust ratio= 0.40000
 Convergence reached after   2 iterations. Final gradient= 8.24D-16, Step= 4.32D-06, Delta= 1.28D-09
 
 Alpha:                 0.19532     0.81920     2.85917     9.50073    35.69989   197.79328
 Coeff:                 0.27070     0.30552     0.18297     0.10986     0.06810     0.04224
 

 Symmetry turned off. Reference energy:       -263.769648855833

 All pairs explicitly correlated. Number of r12-pairs:           78
 
 AO(A)-basis ORBITAL           loaded. Number of functions:     230
 RI(R)-basis CC-PVTZ/JKFIT     loaded. Number of functions:     376
 DF-basis CC-PVTZ/JKFIT        loaded. Number of functions:     376

 Screening thresholds:   THRAO=  1.00D-10  THRMO=  1.00D-09  THRPROD=  1.00D-09
                         THRSW=  1.00D-05  THROV=  1.00D-12  THRF12=   1.00D-08

 CPU time for Fock operators                      0.98 sec
 
 Construction of ABS:
 Smallest eigenvalue of S          2.57E-04  (threshold= 1.00E-08)
 Ratio eigmin/eigmax               1.83E-06  (threshold= 1.00E-09)
 Smallest eigenvalue of S kept     2.57E-04  (threshold= 2.57E-04, 0 functions deleted, 376 kept)
 
 Construction of CABS:
 Smallest eigenvalue of S          2.30E-08  (threshold= 1.00E-08)
 Ratio eigmin/eigmax               2.30E-08  (threshold= 1.00E-09)
 Smallest eigenvalue of S kept     2.30E-08  (threshold= 2.30E-08, 0 functions deleted, 376 kept)
 
 CPU time for CABS singles                        0.17 sec

 CABS-singles contribution of  -0.01592330 patched into reference energy.
 New reference energy        -263.78557215
 
 AO(A)-basis ORBITAL           loaded. Number of functions:     230
 RI(R)-basis CC-PVTZ/JKFIT     loaded. Number of functions:     376
 DF-basis AUG-CC-PVTZ/MP2FIT   loaded. Number of functions:     516

 Screening thresholds:   THRAO=  1.00D-10  THRMO=  1.00D-09  THRPROD=  1.00D-09
                         THRSW=  1.00D-05  THROV=  1.00D-12  THRF12=   1.00D-08

 CPU time for 3-index integral evaluation         2.23 sec
 CPU time for first  half transformation          0.19 sec (14817.9 MFLOP/sec)
 CPU time for second half transformation          0.02 sec ( 5431.2 MFLOP/sec)
 CPU time for sorting                             0.14 sec
 CPU time for fitting                             0.05 sec (27861.0 MFLOP/sec)
 CPU time for tilde quantities                    0.07 sec (26412.6 MFLOP/sec)
 CPU time for assembly                            0.85 sec (28818.2 MFLOP/sec)
 CPU time for tranop_f12                          0.94 sec (32213.5 MFLOP/sec)
 CPU time for f12 integrals (total)               6.69 sec
 F12-matrices built in  3 passes.
 F12-matrices built in  3 passes.
 F12-matrices built in  3 passes.
 F12-matrices built in  3 passes.
 FC-matrix built in  3 passes.
 CPU time for f12 matrices (total)                0.56 sec

 Diagonal F12 approximation with fixed coefficients:  TSING= 0.500,  TTRIP= 0.250 (scaled by -1/beta)

 DF-MP2-F12 energy corrections:
 ------------------------------
 Approx.                                    Singlet             Triplet             Total
 DF-MP2-F12/3*C(DX,FIX)                -0.097438100502     -0.016931385564     -0.114369486066
 DF-MP2-F12/3*C(FIX)                   -0.079855099825     -0.013393804043     -0.093248903868
 DF-MP2-F12/3C(FIX)                    -0.080216913158     -0.013417388305     -0.093634301463

 DF-MP2-F12 correlation energies:
 --------------------------------
 Approx.                                    Singlet             Triplet             Ecorr            Total Energy
 DF-MP2                                -0.537773874040     -0.343112325557     -0.880886199596   -264.666458353922
 DF-MP2-F12/3*C(DX,FIX)                -0.635211974542     -0.360043711120     -0.995255685662   -264.780827839988
 DF-MP2-F12/3*C(FIX)                   -0.617628973865     -0.356506129600     -0.974135103464   -264.759707257790
 DF-MP2-F12/3C(FIX)                    -0.617990787198     -0.356529713861     -0.974520501059   -264.760092655385

 SCS-DF-MP2 energies (F_SING= 1.20000  F_TRIP= 0.62222  F_PARALLEL= 0.33333):
 ----------------------------------------------------------------------------
 SCS-DF-MP2                            -0.858820762527   -264.644392916853
 SCS-DF-MP2-F12/3*C(DX,FIX)            -0.986281567481   -264.771853721806
 SCS-DF-MP2-F12/3*C(FIX)               -0.962980804833   -264.748552959159
 SCS-DF-MP2-F12/3C(FIX)                -0.963429655485   -264.749001809810

 Symmetry restored.
 Symmetry transformation completed.

 Number of N-1 electron functions:              12
 Number of N-2 electron functions:              78
 Number of singly external CSFs:              1422
 Number of doubly external CSFs:           1668984
 Total number of CSFs:                     1670407

 Pair and operator lists are different

 Length of J-op  integral file:             466.33 MB
 Length of K-op  integral file:             525.76 MB
 Length of 3-ext integral record:             0.00 MB

 Memory could be reduced to 76.19 Mwords without degradation in triples

 Integral transformation finished. Total CPU:   4.08 sec, npass=  1  Memory used:  26.50 MW

 Reference energy:                   -263.78557215

 Adding F12 terms to K(Cij), methodcc=6,  factor=1.0

 ITER.      SQ.NORM     CORR.ENERGY   TOTAL ENERGY   ENERGY CHANGE        DEN1      VAR(S)    VAR(P)  DIIS     TIME
   1      1.20219050    -0.86283041  -264.64840256     0.01807214     0.04671066  0.72D-02  0.56D-02  1  1    15.61
   2      1.21650897    -0.85860493  -264.64417709     0.00422547    -0.02015754  0.86D-04  0.59D-03  2  2    18.38
   3      1.22187504    -0.85870204  -264.64427419    -0.00009710    -0.00236655  0.13D-03  0.32D-04  3  3    21.18
   4      1.22467964    -0.85857419  -264.64414635     0.00012785    -0.00141240  0.76D-05  0.41D-05  4  4    23.96
   5      1.22571047    -0.85853654  -264.64410869     0.00003765    -0.00036656  0.56D-06  0.29D-06  5  5    26.76
   6      1.22587280    -0.85850967  -264.64408182     0.00002687    -0.00000807  0.40D-07  0.24D-07  6  6    29.57
   7      1.22590222    -0.85850724  -264.64407940     0.00000243    -0.00000622  0.26D-08  0.40D-08  6  4    32.38
   8      1.22590255    -0.85850675  -264.64407891     0.00000049     0.00000194  0.39D-09  0.27D-09  6  1    35.19
   9      1.22590317    -0.85850682  -264.64407897    -0.00000007     0.00000056  0.26D-10  0.21D-10  6  2    38.05

 Norm of t1 vector:      0.10599831      S-energy:     0.00000004      T1 diagnostic:  0.01529954
                                                                       D1 diagnostic:  0.04497181

 Adding energy correction from Wij-K(Fij), methodcc=6  factor=1.0
 
  CCSD correlation energy              -0.858506818135
  MP2-F12 correction (uncoupled)       -0.092476219654
  C*T doubles correction               -0.001475982778
  f12b correction                       0.015406376189


 Total CPU time for triples:     72.14 sec


 RESULTS
 =======

  Reference energy                   -263.769648855833
  F12 singles correction               -0.015923298493

 F12 singles corrections added to reference energy

  New reference energy               -263.785572154326

  F12a singlet correction              -0.080416421134
  F12a triplet correction              -0.013535781298
  F12a total correction                -0.093952202432

 F12a corrections for ansatz F12/3C(FIX) added to CCSD energy
 
  CCSD-F12a singlet pair energy        -0.641933301385
  CCSD-F12a triplet pair energy        -0.310525757304
  CCSD-F12a correlation energy         -0.952459020567

  Triples (T) contribution             -0.037650330702
  Total correlation energy             -0.990109351269

  CCSD-F12a total energy             -264.738031174893
  CCSD[T]-F12a energy                -264.778225874074
  CCSD-T-F12a energy                 -264.774743731399
 !CCSD(T)-F12a total energy          -264.775681505594

 F12b corrections for ansatz F12/3C(FIX) added to CCSD(T)-F12a energy

  CCSD-F12b singlet pair energy        -0.627750152855
  CCSD-F12b triplet pair energy        -0.309302529645
  CCSD-F12b correlation energy         -0.937052644378

  Triples (T) contribution             -0.037650330702
  Total correlation energy             -0.974702975080

  CCSD-F12b total energy             -264.722624798703
  CCSD[T]-F12b energy                -264.762819497884
  CCSD-T-F12b energy                 -264.759337355210
 !CCSD(T)-F12b total energy          -264.760275129405

 Timing summary (sec):

 STEP                 CPU(USER)    SYS     CPU(TOT)    WALL
 Transformation          4.11      0.52      4.63      4.63
 CCSD iterations        25.07      1.42     26.49     26.93
 Triples                72.14      1.53     73.67     73.64
 MP2-F12                 8.88      1.16     10.04     10.04
 F12b energy             1.78      0.03      1.81      1.81

 Program statistics:

 Available memory in ccsd:                99998934
 Min. memory needed in ccsd:               4419579
 Max. memory used in ccsd:                 5922321
 Max. memory used in cckext:               6231049 (10 integral passes)



 **********************************************************************************************************************************
 DATASETS  * FILE   NREC   LENGTH (MB)   RECORD NAMES
              1      20      268.24       500      610      700      900      950      970     1000      129      960     1100   
                                          VAR    BASINP    GEOM    SYMINP    ZMAT    AOBASIS   BASIS     P2S    ABASIS      S 
                                         1400     1410     1200     1210     1080     1600     1650     1700      960(1)  1380   
                                           T        V       H0       H01     AOSYM     SMH    MOLCAS    OPER    ABASIS    JKOP   

              2       5        1.51       700     1000     2100     7360     7350   
                                         GEOM     BASIS     RHF    F12ABS    EF12   

 PROGRAMS   *        TOTAL   CCSD(T)        HF       INT
 CPU TIMES  *       122.91    112.17      3.92      6.76
 REAL TIME  *       128.97 SEC
 DISK USED  *         1.97 GB      
 SF USED    *         1.52 GB      
 GA USED    *         2.40 MB       (max)       0.00 MB       (current)
 **********************************************************************************************************************************

     CCSD(T)-F12        HF-SCF  
   -264.76027513   -263.76964886
 **********************************************************************************************************************************
 Variable memory released
