
 Primary working directories    : /scratch/kee
 Secondary working directories  : /scratch/kee
 Wavefunction directory         : /home/kee/wfu/
 Main file repository           : /scratch/kee/

 ARCHNAME  : Linux/x86_64
 FC        : /opt/intel/composer_xe_2015.0.090/bin/intel64/ifort
 FCVERSION : 15.0.0
 BLASLIB   : -L/opt/intel/mkl/lib/intel64 -lmkl_intel_ilp64 -lmkl_sequential -lmkl_core
 id        : emory

 Nodes     nprocs
 node22       3
 Number of processes for MPI-2 version of Molpro:   nprocs(total)=    4   nprocs(compute)=    3   nprocs(helper)=    1
 ga_uses_ma=false, calling ma_init with nominal heap.
 GA-space will be limited to   8.0 MW (determined by -G option)

 Using customized tuning parameters: mindgm=7; mindgv=32; mindgc=1; mindgr=1; noblas=0; mincuda=1000; minvec=7
 default implementation of scratch files=sf  

 ***,co2h2o
 memory,100,m
 basis avtz
 geomtype = xyz
 geometry = {
 6
    -264.76489694
 O     0.82869278    1.16169550    0.00000000
 O     0.82658011   -1.16233555    0.00000000
 O   -10.84123391    0.00426859    0.00000000
 H   -11.42486692    0.76486324    0.00000000
 H   -11.42459881   -0.75653333    0.00000000
 C     0.80876519   -0.00029961    0.00000000
 }
 hf
 ccsd(t)-f12
 ---

 Variables initialized (665), CPU time= 0.00 sec
 Commands  initialized (462), CPU time= 0.01 sec, 486 directives.
 Default parameters read. Elapsed time= 0.05 sec

 Checking input...
 Passed
1


                                         ***  PROGRAM SYSTEM MOLPRO  ***
                         Copyright, University College Cardiff Consultants Limited, 2008

                                    Version 2010.1 linked 9 Dec 2014 15:06:28 


 **********************************************************************************************************************************
 LABEL *   co2h2o                                                                        
 Linux-2.6.32-504.el6.x86_64/node22(x86_64) 64 bit mpp version                           DATE: 07-Dec-16          TIME: 00:14:01  
 **********************************************************************************************************************************

 Patch level:      19
 **********************************************************************************************************************************

 Variable memory set to  100000000 words,  buffer space   230000 words

 SETTING BASIS          =    AVTZ
 SETTING GEOMTYPE       =    XYZ

Geometry recognized as XYZ



 Recomputing integrals since basis changed


 Using spherical harmonics

 Library entry O      S aug-cc-pVTZ          selected for orbital group  1
 Library entry O      P aug-cc-pVTZ          selected for orbital group  1
 Library entry O      D aug-cc-pVTZ          selected for orbital group  1
 Library entry O      F aug-cc-pVTZ          selected for orbital group  1
 Library entry H      S aug-cc-pVTZ          selected for orbital group  2
 Library entry H      P aug-cc-pVTZ          selected for orbital group  2
 Library entry H      D aug-cc-pVTZ          selected for orbital group  2
 Library entry C      S aug-cc-pVTZ          selected for orbital group  3
 Library entry C      P aug-cc-pVTZ          selected for orbital group  3
 Library entry C      D aug-cc-pVTZ          selected for orbital group  3
 Library entry C      F aug-cc-pVTZ          selected for orbital group  3

1PROGRAM * SEWARD (Integral evaluation for generally contracted gaussian basis sets)     Author: Roland Lindh, 1990

 Geometry written to block  1 of record 700


 Point group  Cs  



 ATOMIC COORDINATES

 NR  ATOM    CHARGE       X              Y              Z

   1  O       8.00    1.566002401    2.195286343    0.000000000
   2  O       8.00    1.562010034   -2.196495862    0.000000000
   3  O       8.00  -20.486963017    0.008066466    0.000000000
   4  H       1.00  -21.589869567    1.445382052    0.000000000
   5  H       1.00  -21.589362912   -1.429640803    0.000000000
   6  C       6.00    1.528344714   -0.000566181    0.000000000

 Bond lengths in Bohr (Angstrom)

 1-6  2.196175405  2-6  2.196187724  3-4  1.811706088  3-5  1.811708509
     (1.162165971)     (1.162172490)     (0.958713571)     (0.958714852)

 Bond angles

  1-6-2  178.13918425   4-3-5  105.01947441

 NUCLEAR CHARGE:                   32
 NUMBER OF PRIMITIVE AOS:         322
 NUMBER OF SYMMETRY AOS:          282
 NUMBER OF CONTRACTIONS:          230   ( 152A'  +  78A"  )
 NUMBER OF CORE ORBITALS:           4   (   4A'  +   0A"  )
 NUMBER OF VALENCE ORBITALS:       18   (  14A'  +   4A"  )


 NUCLEAR REPULSION ENERGY   77.31205927


 Eigenvalues of metric

         1 0.349E-03 0.384E-03 0.393E-03 0.420E-03 0.902E-03 0.922E-03 0.167E-02 0.175E-02
         2 0.318E-02 0.348E-02 0.595E-02 0.124E-01 0.136E-01 0.296E-01 0.297E-01 0.319E-01


 Contracted 2-electron integrals neglected if value below      1.0D-11
 AO integral compression algorithm  1   Integral accuracy      1.0D-11

     249.823 MB (compressed) written to integral file ( 29.5%)

     Node minimum: 56.885 MB, node maximum: 100.139 MB


 NUMBER OF SORTED TWO-ELECTRON INTEGRALS:   59950380.     BUFFER LENGTH:  32768
 NUMBER OF SEGMENTS:   4  SEGMENT LENGTH:   15995235      RECORD LENGTH: 524288

 Memory used in sort:      16.55 MW

 SORT1 READ   105818208. AND WROTE    16968307. INTEGRALS IN     51 RECORDS. CPU TIME:     1.95 SEC, REAL TIME:     2.23 SEC
 SORT2 READ    50742041. AND WROTE   179836431. INTEGRALS IN   1062 RECORDS. CPU TIME:     0.92 SEC, REAL TIME:     1.19 SEC

 Node minimum:    59940574.  Node maximum:    59950380. integrals

 OPERATOR DM      FOR CENTER  0  COORDINATES:    0.000000    0.000000    0.000000


 **********************************************************************************************************************************
 DATASETS  * FILE   NREC   LENGTH (MB)   RECORD NAMES
              1      18        3.74       500      610      700      900      950      970     1000      129      960     1100   
                                          VAR    BASINP    GEOM    SYMINP    ZMAT    AOBASIS   BASIS     P2S    ABASIS      S 
                                         1400     1410     1200     1210     1080     1600     1650     1700   
                                           T        V       H0       H01     AOSYM     SMH    MOLCAS    OPER   

 PROGRAMS   *        TOTAL       INT
 CPU TIMES  *         5.66      5.56
 REAL TIME  *         6.40 SEC
 DISK USED  *       872.54 MB      
 GA USED    *         0.00 MB       (max)       0.00 MB       (current)
 **********************************************************************************************************************************

1PROGRAM * RHF-SCF (CLOSED SHELL)       Authors: W. Meyer, H.-J. Werner


 NUMBER OF ELECTRONS:      16+   16-
 CONVERGENCE THRESHOLDS:    1.00E-05 (Density)    1.00E-07 (Energy)
 MAX. NUMBER OF ITERATIONS:       60
 INTERPOLATION TYPE:            DIIS
 INTERPOLATION STEPS:              2 (START)      1 (STEP)
 LEVEL SHIFTS:                  0.00 (CLOSED)  0.00 (OPEN) 



 Orbital guess generated from atomic densities. Full valence occupancy:   18   4

 Molecular orbital dump at record        2100.2

 Initial alpha occupancy:  13   3
 Initial beta  occupancy:  13   3
 Wave function symmetry:    1

 ITERATION    DDIFF          GRAD             ENERGY        2-EL.EN.            DIPOLE MOMENTS         DIIS
    1      0.000D+00      0.000D+00      -263.66026446    350.131012   -1.18419   -0.00012    0.00000    0
    2      0.000D+00      0.630D-02      -263.72553841    345.572433   -0.68098   -0.00010    0.00000    1
    3      0.101D-01      0.428D-02      -263.76890384    348.131249   -0.80680   -0.00009    0.00000    2
    4      0.416D-02      0.402D-03      -263.76939898    347.918304   -0.81024   -0.00010    0.00000    3
    5      0.485D-03      0.117D-03      -263.76945696    347.921204   -0.80476   -0.00009    0.00000    4
    6      0.181D-03      0.471D-04      -263.76946412    347.935514   -0.80543   -0.00010    0.00000    5
    7      0.603D-04      0.116D-04      -263.76946485    347.927211   -0.80498   -0.00009    0.00000    6
    8      0.197D-04      0.254D-05      -263.76946489    347.928508   -0.80499   -0.00010    0.00000    7
    9      0.541D-05      0.852D-06      -263.76946490    347.928319   -0.80496   -0.00009    0.00000    0

 Final occupancy:  13   3

 !RHF STATE 1.1 Energy               -263.769464896254
 Nuclear energy                        77.31205927
 One-electron energy                 -515.04568389
 Two-electron energy                  173.96415972
 Virial quotient                       -1.00182811
 !RHF STATE 1.1 Dipole moment          -0.80495802    -0.00009451     0.00000000
 Dipole moment /Debye                  -2.04586520    -0.00024022     0.00000000

 Orbital energies:

         1.1          2.1          3.1          4.1          5.1          6.1          7.1          8.1          9.1         10.1
    -20.651913   -20.651867   -20.567457   -11.460672    -1.529575    -1.476472    -1.352702    -0.799786    -0.742033    -0.718239

        11.1         12.1         13.1         14.1         15.1
     -0.713619    -0.583909    -0.543229     0.029253     0.047493

         1.2          2.2          3.2          4.2          5.2
     -0.713636    -0.543257    -0.510316     0.074366     0.158251


 **********************************************************************************************************************************
 DATASETS  * FILE   NREC   LENGTH (MB)   RECORD NAMES
              1      18        3.76       500      610      700      900      950      970     1000      129      960     1100   
                                          VAR    BASINP    GEOM    SYMINP    ZMAT    AOBASIS   BASIS     P2S    ABASIS      S 
                                         1400     1410     1200     1210     1080     1600     1650     1700   
                                           T        V       H0       H01     AOSYM     SMH    MOLCAS    OPER   

              2       3        0.96       700     1000     2100   
                                         GEOM     BASIS     RHF  

 PROGRAMS   *        TOTAL        HF       INT
 CPU TIMES  *        10.12      4.46      5.56
 REAL TIME  *        11.06 SEC
 DISK USED  *       896.92 MB      
 SF USED    *         0.12 MB      
 GA USED    *         0.00 MB       (max)       0.00 MB       (current)
 **********************************************************************************************************************************


1PROGRAM * CCSD (Closed-shell coupled cluster)     Authors: C. Hampel, H.-J. Werner, 1991, M. Deegan, P.J. Knowles, 1992

                                  CCSD-F12 implementation by  H.-J. Werner, 2007

                   Density fitting integral evaluation by F.R. Manby, 2003,2007, G. Knizia, 2010

 Basis set CC-PVTZ/JKFIT generated.      Number of basis functions:   376 
 Basis set AUG-CC-PVTZ/MP2FIT generated. Number of basis functions:   516 

 Convergence thresholds:  THRVAR = 1.00D-08  THRDEN = 1.00D-06

 CCSD(T)     terms to be evaluated (factor= 1.000)


 Number of core orbitals:           4 (   4   0 )
 Number of closed-shell orbitals:  12 (   9   3 )
 Number of external orbitals:     214 ( 139  75 )

 Molecular orbitals read from record     2100.2  Type=RHF/CANONICAL (state 1.1)

 MP2-F12 correlation treatment (H.-J. Werner, 2006)
 --------------------------------------------------

 Using MP2-F12 with ansatz 3C(FIX)

 Using projected zeroth-order Hamiltonian (+Z)

 FOCKRIB=T FOCKRIC=T FOCKRIP=T CABSP=T CABSA=T CABSK=T CABSF=T GBC=F EBC=F DMAT=T NOFIK=T NOPAO=1 SOLVE=-1  USEPAO=0
 EXCH_A= T EXCH_B= F EXCH_C= F EXCH_P= F
 
 Geminal basis:    OPTFULL  GEM_TYPE=SLATER  BETA=1.0  NGEM=6

 Optimizing Gaussian exponents for each gem_beta

 Geminal optimization for beta= 1.0000
 Weight function:   m=0, omega= 1.4646

 Augmented Hessian optimization of geminal fit. Trust ratio= 0.40000
 Convergence reached after   2 iterations. Final gradient= 8.24D-16, Step= 4.32D-06, Delta= 1.28D-09
 
 Alpha:                 0.19532     0.81920     2.85917     9.50073    35.69989   197.79328
 Coeff:                 0.27070     0.30552     0.18297     0.10986     0.06810     0.04224
 

 Symmetry turned off. Reference energy:       -263.769464896254

 All pairs explicitly correlated. Number of r12-pairs:           78
 
 AO(A)-basis ORBITAL           loaded. Number of functions:     230
 RI(R)-basis CC-PVTZ/JKFIT     loaded. Number of functions:     376
 DF-basis CC-PVTZ/JKFIT        loaded. Number of functions:     376

 Screening thresholds:   THRAO=  1.00D-10  THRMO=  1.00D-09  THRPROD=  1.00D-09
                         THRSW=  1.00D-05  THROV=  1.00D-12  THRF12=   1.00D-08

 CPU time for Fock operators                      1.71 sec
 
 Construction of ABS:
 Smallest eigenvalue of S          2.57E-04  (threshold= 1.00E-08)
 Ratio eigmin/eigmax               1.83E-06  (threshold= 1.00E-09)
 Smallest eigenvalue of S kept     2.57E-04  (threshold= 2.57E-04, 0 functions deleted, 376 kept)
 
 Construction of CABS:
 Smallest eigenvalue of S          2.30E-08  (threshold= 1.00E-08)
 Ratio eigmin/eigmax               2.30E-08  (threshold= 1.00E-09)
 Smallest eigenvalue of S kept     2.30E-08  (threshold= 2.30E-08, 0 functions deleted, 376 kept)
 
 CPU time for CABS singles                        0.18 sec

 CABS-singles contribution of  -0.01592473 patched into reference energy.
 New reference energy        -263.78538962
 
 AO(A)-basis ORBITAL           loaded. Number of functions:     230
 RI(R)-basis CC-PVTZ/JKFIT     loaded. Number of functions:     376
 DF-basis AUG-CC-PVTZ/MP2FIT   loaded. Number of functions:     516

 Screening thresholds:   THRAO=  1.00D-10  THRMO=  1.00D-09  THRPROD=  1.00D-09
                         THRSW=  1.00D-05  THROV=  1.00D-12  THRF12=   1.00D-08

 CPU time for 3-index integral evaluation         1.70 sec
 CPU time for first  half transformation          0.36 sec ( 3989.7 MFLOP/sec)
 CPU time for second half transformation          0.02 sec ( 3041.0 MFLOP/sec)
 CPU time for sorting                             0.12 sec
 CPU time for fitting                             0.05 sec (27520.2 MFLOP/sec)
 CPU time for tilde quantities                    0.09 sec (20353.8 MFLOP/sec)
 CPU time for assembly                            0.94 sec (27302.4 MFLOP/sec)
 CPU time for tranop_f12                          1.73 sec (20161.2 MFLOP/sec)
 CPU time for f12 integrals (total)               8.02 sec
 F12-matrices built in  3 passes.
 F12-matrices built in  3 passes.
 F12-matrices built in  3 passes.
 F12-matrices built in  3 passes.
 FC-matrix built in  3 passes.
 CPU time for f12 matrices (total)                0.61 sec

 Diagonal F12 approximation with fixed coefficients:  TSING= 0.500,  TTRIP= 0.250 (scaled by -1/beta)

 DF-MP2-F12 energy corrections:
 ------------------------------
 Approx.                                    Singlet             Triplet             Total
 DF-MP2-F12/3*C(DX,FIX)                -0.097454613595     -0.016934566910     -0.114389180505
 DF-MP2-F12/3*C(FIX)                   -0.079870074826     -0.013396596119     -0.093266670945
 DF-MP2-F12/3C(FIX)                    -0.080230872704     -0.013419715309     -0.093650588014

 DF-MP2-F12 correlation energies:
 --------------------------------
 Approx.                                    Singlet             Triplet             Ecorr            Total Energy
 DF-MP2                                -0.537726105098     -0.343069401575     -0.880795506673   -264.666185128916
 DF-MP2-F12/3*C(DX,FIX)                -0.635180718693     -0.360003968485     -0.995184687179   -264.780574309422
 DF-MP2-F12/3*C(FIX)                   -0.617596179924     -0.356465997694     -0.974062177618   -264.759451799861
 DF-MP2-F12/3C(FIX)                    -0.617956977803     -0.356489116884     -0.974446094687   -264.759835716930

 SCS-DF-MP2 energies (F_SING= 1.20000  F_TRIP= 0.62222  F_PARALLEL= 0.33333):
 ----------------------------------------------------------------------------
 SCS-DF-MP2                            -0.858736731542   -264.644126353785
 SCS-DF-MP2-F12/3*C(DX,FIX)            -0.986219331712   -264.771608953955
 SCS-DF-MP2-F12/3*C(FIX)               -0.962916481141   -264.748306103384
 SCS-DF-MP2-F12/3C(FIX)                -0.963363823869   -264.748753446112

 Symmetry restored.
 Symmetry transformation completed.

 Number of N-1 electron functions:              12
 Number of N-2 electron functions:              78
 Number of singly external CSFs:              1476
 Number of doubly external CSFs:           1686804
 Total number of CSFs:                     1688281

 Pair and operator lists are different

 Length of J-op  integral file:             466.42 MB
 Length of K-op  integral file:             526.62 MB
 Length of 3-ext integral record:             0.00 MB

 Memory could be reduced to 76.61 Mwords without degradation in triples

 Integral transformation finished. Total CPU:   6.77 sec, npass=  1  Memory used:  24.61 MW

 Reference energy:                   -263.78538962

 Adding F12 terms to K(Cij), methodcc=6,  factor=1.0

 ITER.      SQ.NORM     CORR.ENERGY   TOTAL ENERGY   ENERGY CHANGE        DEN1      VAR(S)    VAR(P)  DIIS     TIME
   1      1.20214862    -0.86274732  -264.64813694     0.01806467     0.04669744  0.72D-02  0.56D-02  1  1    21.31
   2      1.21646128    -0.85851992  -264.64390954     0.00422740    -0.02015282  0.86D-04  0.59D-03  2  2    25.18
   3      1.22182139    -0.85861593  -264.64400555    -0.00009601    -0.00236382  0.13D-03  0.32D-04  3  3    29.14
   4      1.22462299    -0.85848806  -264.64387768     0.00012787    -0.00141121  0.76D-05  0.41D-05  4  4    32.66
   5      1.22565297    -0.85845035  -264.64383997     0.00003771    -0.00036639  0.56D-06  0.29D-06  5  5    36.03
   6      1.22581516    -0.85842349  -264.64381311     0.00002686    -0.00000805  0.40D-07  0.24D-07  6  6    38.80
   7      1.22584451    -0.85842107  -264.64381069     0.00000242    -0.00000622  0.25D-08  0.40D-08  6  4    41.95
   8      1.22584481    -0.85842058  -264.64381020     0.00000049     0.00000195  0.39D-09  0.27D-09  6  1    46.04
   9      1.22584542    -0.85842064  -264.64381027    -0.00000007     0.00000056  0.26D-10  0.21D-10  6  2    50.39

 Norm of t1 vector:      0.10595739      S-energy:    -0.00000002      T1 diagnostic:  0.01529363
                                                                       D1 diagnostic:  0.04494389

 Adding energy correction from Wij-K(Fij), methodcc=6  factor=1.0
 
  CCSD correlation energy              -0.858420644595
  MP2-F12 correction (uncoupled)       -0.092493593276
  C*T doubles correction               -0.001475745069
  f12b correction                       0.015407308936


 Total CPU time for triples:     90.95 sec


 RESULTS
 =======

  Reference energy                   -263.769464896254
  F12 singles correction               -0.015924725989

 F12 singles corrections added to reference energy

  New reference energy               -263.785389622243

  F12a singlet correction              -0.080430876843
  F12a triplet correction              -0.013538461502
  F12a total correction                -0.093969338345

 F12a corrections for ansatz F12/3C(FIX) added to CCSD energy
 
  CCSD-F12a singlet pair energy        -0.641893482368
  CCSD-F12a triplet pair energy        -0.310496476080
  CCSD-F12a correlation energy         -0.952389982940

  Triples (T) contribution             -0.037638729432
  Total correlation energy             -0.990028712372

  CCSD-F12a total energy             -264.737779605183
  CCSD[T]-F12a energy                -264.777962034507
  CCSD-T-F12a energy                 -264.774480721163
 !CCSD(T)-F12a total energy          -264.775418334615

 F12b corrections for ansatz F12/3C(FIX) added to CCSD(T)-F12a energy

  CCSD-F12b singlet pair energy        -0.627709529831
  CCSD-F12b triplet pair energy        -0.309273119681
  CCSD-F12b correlation energy         -0.936982674003

  Triples (T) contribution             -0.037638729432
  Total correlation energy             -0.974621403435

  CCSD-F12b total energy             -264.722372296246
  CCSD[T]-F12b energy                -264.762554725570
  CCSD-T-F12b energy                 -264.759073412227
 !CCSD(T)-F12b total energy          -264.760011025678

 Timing summary (sec):

 STEP                 CPU(USER)    SYS     CPU(TOT)    WALL
 Transformation          6.81      0.63      7.44      7.43
 CCSD iterations        32.62      1.74     34.36     34.83
 Triples                90.95      2.41     93.36     93.32
 MP2-F12                10.99      1.66     12.65     12.66
 F12b energy             2.69      0.07      2.76      2.76

 Program statistics:

 Available memory in ccsd:                99998934
 Min. memory needed in ccsd:               4458306
 Max. memory used in ccsd:                 5958390
 Max. memory used in cckext:               6352469 (10 integral passes)



 **********************************************************************************************************************************
 DATASETS  * FILE   NREC   LENGTH (MB)   RECORD NAMES
              1      20      269.66       500      610      700      900      950      970     1000      129      960     1100   
                                          VAR    BASINP    GEOM    SYMINP    ZMAT    AOBASIS   BASIS     P2S    ABASIS      S 
                                         1400     1410     1200     1210     1080     1600     1650     1700      960(1)  1380   
                                           T        V       H0       H01     AOSYM     SMH    MOLCAS    OPER    ABASIS    JKOP   

              2       5        1.55       700     1000     2100     7360     7350   
                                         GEOM     BASIS     RHF    F12ABS    EF12   

 PROGRAMS   *        TOTAL   CCSD(T)        HF       INT
 CPU TIMES  *       154.26    144.14      4.46      5.56
 REAL TIME  *       162.42 SEC
 DISK USED  *         1.34 GB      
 SF USED    *         1.53 GB      
 GA USED    *         2.40 MB       (max)       0.00 MB       (current)
 **********************************************************************************************************************************

     CCSD(T)-F12        HF-SCF  
   -264.76001103   -263.76946490
 **********************************************************************************************************************************
 Variable memory released
