
 Primary working directories    : /scratch/kee
 Secondary working directories  : /scratch/kee
 Wavefunction directory         : /home/kee/wfu/
 Main file repository           : /scratch/kee/

 ARCHNAME  : Linux/x86_64
 FC        : /opt/intel/composer_xe_2015.0.090/bin/intel64/ifort
 FCVERSION : 15.0.0
 BLASLIB   : -L/opt/intel/mkl/lib/intel64 -lmkl_intel_ilp64 -lmkl_sequential -lmkl_core
 id        : emory

 Nodes     nprocs
 node20       3
 Number of processes for MPI-2 version of Molpro:   nprocs(total)=    4   nprocs(compute)=    3   nprocs(helper)=    1
 ga_uses_ma=false, calling ma_init with nominal heap.
 GA-space will be limited to   8.0 MW (determined by -G option)

 Using customized tuning parameters: mindgm=7; mindgv=32; mindgc=1; mindgr=1; noblas=0; mincuda=1000; minvec=7
 default implementation of scratch files=sf  

 ***,co2h2o
 memory,100,m
 basis avtz
 geomtype = xyz
 geometry = {
 6
       0.00000000
 O     0.00032100    1.15989800    0.00000000
 O     0.00041400   -1.15989400    0.00000000
 O     8.88733296    6.51624379    2.33737428
 H     9.67888748    6.82519943    1.89502564
 H     9.20131877    6.03761604    3.10549651
 C     0.01953800    0.00000300    0.00000000
 }
 hf
 ccsd(t)-f12
 ---

 Variables initialized (665), CPU time= 0.01 sec
 Commands  initialized (462), CPU time= 0.00 sec, 486 directives.
 Default parameters read. Elapsed time= 0.03 sec

 Checking input...
 Passed
1


                                         ***  PROGRAM SYSTEM MOLPRO  ***
                         Copyright, University College Cardiff Consultants Limited, 2008

                                    Version 2010.1 linked 9 Dec 2014 15:06:28 


 **********************************************************************************************************************************
 LABEL *   co2h2o                                                                        
 Linux-2.6.32-504.el6.x86_64/node20(x86_64) 64 bit mpp version                           DATE: 15-Dec-16          TIME: 00:55:35  
 **********************************************************************************************************************************

 Patch level:      19
 **********************************************************************************************************************************

 Variable memory set to  100000000 words,  buffer space   230000 words

 SETTING BASIS          =    AVTZ
 SETTING GEOMTYPE       =    XYZ

Geometry recognized as XYZ



 Recomputing integrals since basis changed


 Using spherical harmonics

 Library entry O      S aug-cc-pVTZ          selected for orbital group  1
 Library entry O      P aug-cc-pVTZ          selected for orbital group  1
 Library entry O      D aug-cc-pVTZ          selected for orbital group  1
 Library entry O      F aug-cc-pVTZ          selected for orbital group  1
 Library entry H      S aug-cc-pVTZ          selected for orbital group  2
 Library entry H      P aug-cc-pVTZ          selected for orbital group  2
 Library entry H      D aug-cc-pVTZ          selected for orbital group  2
 Library entry C      S aug-cc-pVTZ          selected for orbital group  3
 Library entry C      P aug-cc-pVTZ          selected for orbital group  3
 Library entry C      D aug-cc-pVTZ          selected for orbital group  3
 Library entry C      F aug-cc-pVTZ          selected for orbital group  3

1PROGRAM * SEWARD (Integral evaluation for generally contracted gaussian basis sets)     Author: Roland Lindh, 1990

 Geometry written to block  1 of record 700


 Point group  C1  



 ATOMIC COORDINATES

 NR  ATOM    CHARGE       X              Y              Z

   1  O       8.00    0.000606602    2.191889560    0.000000000
   2  O       8.00    0.000782347   -2.191882001    0.000000000
   3  O       8.00   16.794625333   12.313916169    4.416997256
   4  H       1.00   18.290446594   12.897757715    3.581079472
   5  H       1.00   17.387972523   11.409440802    5.868537906
   6  C       6.00    0.036921469    0.000005669    0.000000000

 Bond lengths in Bohr (Angstrom)

 1-6  2.192184701  2-6  2.192185575  3-4  1.810279188  3-5  1.810278110
     (1.160054182)     (1.160054644)     (0.957958488)     (0.957957918)

 Bond angles

  1-6-2  178.10622893   4-3-5  105.10354909

 NUCLEAR CHARGE:                   32
 NUMBER OF PRIMITIVE AOS:         322
 NUMBER OF SYMMETRY AOS:          282
 NUMBER OF CONTRACTIONS:          230   ( 230A   )
 NUMBER OF CORE ORBITALS:           4   (   4A   )
 NUMBER OF VALENCE ORBITALS:       18   (  18A   )


 NUCLEAR REPULSION ENERGY   77.83673379


 Eigenvalues of metric

         1 0.348E-03 0.384E-03 0.392E-03 0.419E-03 0.896E-03 0.914E-03 0.167E-02 0.174E-02


 Contracted 2-electron integrals neglected if value below      1.0D-11
 AO integral compression algorithm  1   Integral accuracy      1.0D-11

     390.332 MB (compressed) written to integral file ( 22.6%)

     Node minimum: 106.693 MB, node maximum: 142.344 MB


 NUMBER OF SORTED TWO-ELECTRON INTEGRALS:  117629820.     BUFFER LENGTH:  32768
 NUMBER OF SEGMENTS:   8  SEGMENT LENGTH:   15997437      RECORD LENGTH: 524288

 Memory used in sort:      16.55 MW

 SORT1 READ   216148831. AND WROTE    26990678. INTEGRALS IN     82 RECORDS. CPU TIME:     2.06 SEC, REAL TIME:     2.35 SEC
 SORT2 READ    80442855. AND WROTE   352862895. INTEGRALS IN   1221 RECORDS. CPU TIME:     0.95 SEC, REAL TIME:     1.22 SEC

 Node minimum:   117612110.  Node maximum:   117629820. integrals

 OPERATOR DM      FOR CENTER  0  COORDINATES:    0.000000    0.000000    0.000000


 **********************************************************************************************************************************
 DATASETS  * FILE   NREC   LENGTH (MB)   RECORD NAMES
              1      18        4.62       500      610      700      900      950      970     1000      129      960     1100   
                                          VAR    BASINP    GEOM    SYMINP    ZMAT    AOBASIS   BASIS     P2S    ABASIS      S 
                                         1400     1410     1200     1210     1080     1600     1650     1700   
                                           T        V       H0       H01     AOSYM     SMH    MOLCAS    OPER   

 PROGRAMS   *        TOTAL       INT
 CPU TIMES  *         5.47      5.40
 REAL TIME  *         6.36 SEC
 DISK USED  *         1.35 GB      
 GA USED    *         0.00 MB       (max)       0.00 MB       (current)
 **********************************************************************************************************************************

1PROGRAM * RHF-SCF (CLOSED SHELL)       Authors: W. Meyer, H.-J. Werner


 NUMBER OF ELECTRONS:      16+   16-    SPACE SYMMETRY=1    SPIN SYMMETRY=Singlet 
 CONVERGENCE THRESHOLDS:    1.00E-05 (Density)    1.00E-07 (Energy)
 MAX. NUMBER OF ITERATIONS:       60
 INTERPOLATION TYPE:            DIIS
 INTERPOLATION STEPS:              2 (START)      1 (STEP)
 LEVEL SHIFTS:                  0.00 (CLOSED)  0.00 (OPEN) 



 Orbital guess generated from atomic densities. Full valence occupancy:   22

 Molecular orbital dump at record        2100.2

 ITERATION    DDIFF          GRAD             ENERGY        2-EL.EN.            DIPOLE MOMENTS         DIIS
    1      0.000D+00      0.000D+00      -263.66134367    351.165957    1.12568   -0.16409    0.31507    0
    2      0.000D+00      0.468D-02      -263.72654086    346.608500    0.64500   -0.09257    0.18691    1
    3      0.749D-02      0.317D-02      -263.76940521    349.160555    0.76573   -0.11075    0.21733    2
    4      0.307D-02      0.296D-03      -263.76989351    348.947030    0.76881   -0.11077    0.21859    3
    5      0.356D-03      0.858D-04      -263.76994991    348.951217    0.76371   -0.11042    0.21707    4
    6      0.132D-03      0.344D-04      -263.76995678    348.964943    0.76432   -0.11026    0.21730    5
    7      0.433D-04      0.850D-05      -263.76995748    348.956755    0.76390   -0.11032    0.21717    6
    8      0.141D-04      0.188D-05      -263.76995753    348.958018    0.76391   -0.11023    0.21717    7
    9      0.382D-05      0.735D-06      -263.76995753    348.957851    0.76388   -0.11031    0.21717    0

 Final occupancy:  16

 !RHF STATE 1.1 Energy               -263.769957529762
 Nuclear energy                        77.83673379
 One-electron energy                 -516.08561693
 Two-electron energy                  174.47892561
 Virial quotient                       -1.00173763
 !RHF STATE 1.1 Dipole moment           0.76388181    -0.11031418     0.21716570
 Dipole moment /Debye                   1.94146673    -0.28037231     0.55194400

 Orbital energies:

         1.1          2.1          3.1          4.1          5.1          6.1          7.1          8.1          9.1         10.1
    -20.651691   -20.651562   -20.567122   -11.459748    -1.531032    -1.477909    -1.352866    -0.799809    -0.742678    -0.718652

        11.1         12.1         13.1         14.1         15.1         16.1         17.1         18.1
     -0.714828    -0.714816    -0.583708    -0.543652    -0.543625    -0.510184     0.029356     0.047299


 **********************************************************************************************************************************
 DATASETS  * FILE   NREC   LENGTH (MB)   RECORD NAMES
              1      18        4.62       500      610      700      900      950      970     1000      129      960     1100   
                                          VAR    BASINP    GEOM    SYMINP    ZMAT    AOBASIS   BASIS     P2S    ABASIS      S 
                                         1400     1410     1200     1210     1080     1600     1650     1700   
                                           T        V       H0       H01     AOSYM     SMH    MOLCAS    OPER   

              2       3        1.44       700     1000     2100   
                                         GEOM     BASIS     RHF  

 PROGRAMS   *        TOTAL        HF       INT
 CPU TIMES  *        13.03      7.56      5.40
 REAL TIME  *        14.16 SEC
 DISK USED  *         1.39 GB      
 SF USED    *         0.21 MB      
 GA USED    *         0.00 MB       (max)       0.00 MB       (current)
 **********************************************************************************************************************************


1PROGRAM * CCSD (Closed-shell coupled cluster)     Authors: C. Hampel, H.-J. Werner, 1991, M. Deegan, P.J. Knowles, 1992

                                  CCSD-F12 implementation by  H.-J. Werner, 2007

                   Density fitting integral evaluation by F.R. Manby, 2003,2007, G. Knizia, 2010

 Basis set CC-PVTZ/JKFIT generated.      Number of basis functions:   376 
 Basis set AUG-CC-PVTZ/MP2FIT generated. Number of basis functions:   516 

 Convergence thresholds:  THRVAR = 1.00D-08  THRDEN = 1.00D-06

 CCSD(T)     terms to be evaluated (factor= 1.000)


 Number of core orbitals:           4 (   4 )
 Number of closed-shell orbitals:  12 (  12 )
 Number of external orbitals:     214 ( 214 )

 Molecular orbitals read from record     2100.2  Type=RHF/CANONICAL (state 1.1)

 MP2-F12 correlation treatment (H.-J. Werner, 2006)
 --------------------------------------------------

 Using MP2-F12 with ansatz 3C(FIX)

 Using projected zeroth-order Hamiltonian (+Z)

 FOCKRIB=T FOCKRIC=T FOCKRIP=T CABSP=T CABSA=T CABSK=T CABSF=T GBC=F EBC=F DMAT=T NOFIK=T NOPAO=1 SOLVE=-1  USEPAO=0
 EXCH_A= T EXCH_B= F EXCH_C= F EXCH_P= F
 
 Geminal basis:    OPTFULL  GEM_TYPE=SLATER  BETA=1.0  NGEM=6

 Optimizing Gaussian exponents for each gem_beta

 Geminal optimization for beta= 1.0000
 Weight function:   m=0, omega= 1.4646

 Augmented Hessian optimization of geminal fit. Trust ratio= 0.40000
 Convergence reached after   2 iterations. Final gradient= 8.24D-16, Step= 4.32D-06, Delta= 1.28D-09
 
 Alpha:                 0.19532     0.81920     2.85917     9.50073    35.69989   197.79328
 Coeff:                 0.27070     0.30552     0.18297     0.10986     0.06810     0.04224
 

 All pairs explicitly correlated. Number of r12-pairs:           78
 
 AO(A)-basis ORBITAL           loaded. Number of functions:     230
 RI(R)-basis CC-PVTZ/JKFIT     loaded. Number of functions:     376
 DF-basis CC-PVTZ/JKFIT        loaded. Number of functions:     376

 Screening thresholds:   THRAO=  1.00D-10  THRMO=  1.00D-09  THRPROD=  1.00D-09
                         THRSW=  1.00D-05  THROV=  1.00D-12  THRF12=   1.00D-08

 CPU time for Fock operators                      0.94 sec
 
 Construction of ABS:
 Smallest eigenvalue of S          2.57E-04  (threshold= 1.00E-08)
 Ratio eigmin/eigmax               1.83E-06  (threshold= 1.00E-09)
 Smallest eigenvalue of S kept     2.57E-04  (threshold= 2.57E-04, 0 functions deleted, 376 kept)
 
 Construction of CABS:
 Smallest eigenvalue of S          2.29E-08  (threshold= 1.00E-08)
 Ratio eigmin/eigmax               2.29E-08  (threshold= 1.00E-09)
 Smallest eigenvalue of S kept     2.29E-08  (threshold= 2.29E-08, 0 functions deleted, 376 kept)
 
 CPU time for CABS singles                        0.18 sec

 CABS-singles contribution of  -0.01596102 patched into reference energy.
 New reference energy        -263.78591855
 
 AO(A)-basis ORBITAL           loaded. Number of functions:     230
 RI(R)-basis CC-PVTZ/JKFIT     loaded. Number of functions:     376
 DF-basis AUG-CC-PVTZ/MP2FIT   loaded. Number of functions:     516

 Screening thresholds:   THRAO=  1.00D-10  THRMO=  1.00D-09  THRPROD=  1.00D-09
                         THRSW=  1.00D-05  THROV=  1.00D-12  THRF12=   1.00D-08

 CPU time for 3-index integral evaluation         1.71 sec
 CPU time for first  half transformation          0.19 sec ( 9605.5 MFLOP/sec)
 CPU time for sorting                             0.16 sec
 CPU time for fitting                             0.05 sec (27861.0 MFLOP/sec)
 CPU time for tilde quantities                    0.07 sec (26412.6 MFLOP/sec)
 CPU time for assembly                            0.83 sec (28533.0 MFLOP/sec)
 CPU time for tranop_f12                          0.91 sec (33517.7 MFLOP/sec)
 CPU time for f12 integrals (total)               6.17 sec
 F12-matrices built in  3 passes.
 F12-matrices built in  3 passes.
 F12-matrices built in  3 passes.
 F12-matrices built in  3 passes.
 FC-matrix built in  3 passes.
 CPU time for f12 matrices (total)                0.59 sec

 Diagonal F12 approximation with fixed coefficients:  TSING= 0.500,  TTRIP= 0.250 (scaled by -1/beta)

 DF-MP2-F12 energy corrections:
 ------------------------------
 Approx.                                    Singlet             Triplet             Total
 DF-MP2-F12/3*C(DX,FIX)                -0.097505153042     -0.016950860073     -0.114456013115
 DF-MP2-F12/3*C(FIX)                   -0.079905231052     -0.013407894655     -0.093313125707
 DF-MP2-F12/3C(FIX)                    -0.080263616035     -0.013430840703     -0.093694456738

 DF-MP2-F12 correlation energies:
 --------------------------------
 Approx.                                    Singlet             Triplet             Ecorr            Total Energy
 DF-MP2                                -0.537338231995     -0.342774162154     -0.880112394149   -264.666030948801
 DF-MP2-F12/3*C(DX,FIX)                -0.634843385037     -0.359725022227     -0.994568407264   -264.780486961916
 DF-MP2-F12/3*C(FIX)                   -0.617243463047     -0.356182056809     -0.973425519856   -264.759344074508
 DF-MP2-F12/3C(FIX)                    -0.617601848030     -0.356205002858     -0.973806850888   -264.759725405540

 SCS-DF-MP2 energies (F_SING= 1.20000  F_TRIP= 0.62222  F_PARALLEL= 0.33333):
 ----------------------------------------------------------------------------
 SCS-DF-MP2                            -0.858087579290   -264.644006133942
 SCS-DF-MP2-F12/3*C(DX,FIX)            -0.985640964763   -264.771559519415
 SCS-DF-MP2-F12/3*C(FIX)               -0.962316546560   -264.748235101212
 SCS-DF-MP2-F12/3C(FIX)                -0.962760886081   -264.748679440733
 Symmetry transformation completed.

 Number of N-1 electron functions:              12
 Number of N-2 electron functions:              78
 Number of singly external CSFs:              2568
 Number of doubly external CSFs:           3298596
 Total number of CSFs:                     3301165

 Pair and operator lists are different

 Length of J-op  integral file:             474.22 MB
 Length of K-op  integral file:             572.29 MB
 Length of 3-ext integral record:             0.00 MB

 For full I/O caching in triples, increase memory by 50.81 Mwords to 151.09 Mwords.

 Integral transformation finished. Total CPU:  12.37 sec, npass=  1  Memory used:  87.46 MW

 Reference energy:                   -263.78591855

 Adding F12 terms to K(Cij), methodcc=6,  factor=1.0

 ITER.      SQ.NORM     CORR.ENERGY   TOTAL ENERGY   ENERGY CHANGE        DEN1      VAR(S)    VAR(P)  DIIS     TIME
   1      1.20176114    -0.86219960  -264.64811816     0.01792920     0.04638173  0.71D-02  0.55D-02  1  1    27.87
   2      1.21598598    -0.85801550  -264.64393405     0.00418411    -0.02004570  0.85D-04  0.58D-03  2  2    35.07
   3      1.22129665    -0.85810960  -264.64402816    -0.00009411    -0.00235185  0.13D-03  0.32D-04  3  3    42.34
   4      1.22406693    -0.85798453  -264.64390308     0.00012508    -0.00140054  0.74D-05  0.40D-05  4  4    49.80
   5      1.22508043    -0.85794753  -264.64386609     0.00003699    -0.00036150  0.54D-06  0.28D-06  5  5    56.75
   6      1.22523993    -0.85792108  -264.64383964     0.00002645    -0.00000787  0.39D-07  0.23D-07  6  6    63.81
   7      1.22526874    -0.85791871  -264.64383726     0.00000238    -0.00000613  0.25D-08  0.39D-08  6  4    70.92
   8      1.22526903    -0.85791822  -264.64383678     0.00000048     0.00000192  0.38D-09  0.26D-09  6  1    77.87
   9      1.22526963    -0.85791829  -264.64383684    -0.00000007     0.00000055  0.25D-10  0.21D-10  6  2    84.92

 Norm of t1 vector:      0.10538148      S-energy:     0.00000001      T1 diagnostic:  0.01521051
                                                                       D1 diagnostic:  0.04464255

 Adding energy correction from Wij-K(Fij), methodcc=6  factor=1.0
 
  CCSD correlation energy              -0.857918290165
  MP2-F12 correction (uncoupled)       -0.092542793323
  C*T doubles correction               -0.001473684450
  f12b correction                       0.015403119119


 Total CPU time for triples:    226.17 sec


 RESULTS
 =======

  Reference energy                   -263.769957529762
  F12 singles correction               -0.015961024890

 F12 singles corrections added to reference energy

  New reference energy               -263.785918554652

  F12a singlet correction              -0.080466323740
  F12a triplet correction              -0.013550154034
  F12a total correction                -0.094016477773

 F12a corrections for ansatz F12/3C(FIX) added to CCSD energy
 
  CCSD-F12a singlet pair energy        -0.641548560702
  CCSD-F12a triplet pair energy        -0.310386214111
  CCSD-F12a correlation energy         -0.951934767939

  Triples (T) contribution             -0.037509763539
  Total correlation energy             -0.989444531477

  CCSD-F12a total energy             -264.737853322591
  CCSD[T]-F12a energy                -264.777879938542
  CCSD-T-F12a energy                 -264.774433340674
 !CCSD(T)-F12a total energy          -264.775363086130

 F12b corrections for ansatz F12/3C(FIX) added to CCSD(T)-F12a energy

  CCSD-F12b singlet pair energy        -0.627369336284
  CCSD-F12b triplet pair energy        -0.309162319409
  CCSD-F12b correlation energy         -0.936531648819

  Triples (T) contribution             -0.037509763539
  Total correlation energy             -0.974041412358

  CCSD-F12b total energy             -264.722450203472
  CCSD[T]-F12b energy                -264.762476819422
  CCSD-T-F12b energy                 -264.759030221555
 !CCSD(T)-F12b total energy          -264.759959967011

 Timing summary (sec):

 STEP                 CPU(USER)    SYS     CPU(TOT)    WALL
 Transformation         12.49      1.12     13.61     13.69
 CCSD iterations        63.92      2.82     66.74     66.70
 Triples               226.17      2.53    228.70    228.61
 MP2-F12                 8.54      1.29      9.83      9.84
 F12b energy             4.16      0.04      4.20      4.20

 Program statistics:

 Available memory in ccsd:                99998934
 Min. memory needed in ccsd:               8644845
 Max. memory used in ccsd:                11598633
 Max. memory used in cckext:               8768967 (10 integral passes)



 **********************************************************************************************************************************
 DATASETS  * FILE   NREC   LENGTH (MB)   RECORD NAMES
              1      20      527.84       500      610      700      900      950      970     1000      129      960     1100   
                                          VAR    BASINP    GEOM    SYMINP    ZMAT    AOBASIS   BASIS     P2S    ABASIS      S 
                                         1400     1410     1200     1210     1080     1600     1650     1700      960(1)  1380   
                                           T        V       H0       H01     AOSYM     SMH    MOLCAS    OPER    ABASIS    JKOP   

              2       5        2.50       700     1000     2100     7360     7350   
                                         GEOM     BASIS     RHF    F12ABS    EF12   

 PROGRAMS   *        TOTAL   CCSD(T)        HF       INT
 CPU TIMES  *       328.41    315.38      7.56      5.40
 REAL TIME  *       337.57 SEC
 DISK USED  *         2.25 GB      
 SF USED    *         1.91 GB      
 GA USED    *         2.40 MB       (max)       0.00 MB       (current)
 **********************************************************************************************************************************

     CCSD(T)-F12        HF-SCF  
   -264.75995997   -263.76995753
 **********************************************************************************************************************************
 Variable memory released
