
 Primary working directories    : /scratch/kee
 Secondary working directories  : /scratch/kee
 Wavefunction directory         : /home/kee/wfu/
 Main file repository           : /scratch/kee/

 ARCHNAME  : Linux/x86_64
 FC        : /opt/intel/composer_xe_2015.0.090/bin/intel64/ifort
 FCVERSION : 15.0.0
 BLASLIB   : -L/opt/intel/mkl/lib/intel64 -lmkl_intel_ilp64 -lmkl_sequential -lmkl_core
 id        : emory

 Nodes     nprocs
 node20       3
 Number of processes for MPI-2 version of Molpro:   nprocs(total)=    4   nprocs(compute)=    3   nprocs(helper)=    1
 ga_uses_ma=false, calling ma_init with nominal heap.
 GA-space will be limited to   8.0 MW (determined by -G option)

 Using customized tuning parameters: mindgm=7; mindgv=32; mindgc=1; mindgr=1; noblas=0; mincuda=1000; minvec=7
 default implementation of scratch files=sf  

 ***,co2h2o
 memory,100,m
 basis avtz
 geomtype = xyz
 geometry = {
 6
       0.00000000
 O     0.00032100    1.15989800    0.00000000
 O     0.00041400   -1.15989400    0.00000000
 O     9.08439507    6.66104914    2.38931593
 H     9.87594959    6.97000478    1.94696729
 H     9.39838089    6.18242139    3.15743816
 C     0.01953800    0.00000300    0.00000000
 }
 hf
 ccsd(t)-f12
 ---

 Variables initialized (665), CPU time= 0.00 sec
 Commands  initialized (462), CPU time= 0.01 sec, 486 directives.
 Default parameters read. Elapsed time= 0.04 sec

 Checking input...
 Passed
1


                                         ***  PROGRAM SYSTEM MOLPRO  ***
                         Copyright, University College Cardiff Consultants Limited, 2008

                                    Version 2010.1 linked 9 Dec 2014 15:06:28 


 **********************************************************************************************************************************
 LABEL *   co2h2o                                                                        
 Linux-2.6.32-504.el6.x86_64/node20(x86_64) 64 bit mpp version                           DATE: 15-Dec-16          TIME: 01:23:43  
 **********************************************************************************************************************************

 Patch level:      19
 **********************************************************************************************************************************

 Variable memory set to  100000000 words,  buffer space   230000 words

 SETTING BASIS          =    AVTZ
 SETTING GEOMTYPE       =    XYZ

Geometry recognized as XYZ



 Recomputing integrals since basis changed


 Using spherical harmonics

 Library entry O      S aug-cc-pVTZ          selected for orbital group  1
 Library entry O      P aug-cc-pVTZ          selected for orbital group  1
 Library entry O      D aug-cc-pVTZ          selected for orbital group  1
 Library entry O      F aug-cc-pVTZ          selected for orbital group  1
 Library entry H      S aug-cc-pVTZ          selected for orbital group  2
 Library entry H      P aug-cc-pVTZ          selected for orbital group  2
 Library entry H      D aug-cc-pVTZ          selected for orbital group  2
 Library entry C      S aug-cc-pVTZ          selected for orbital group  3
 Library entry C      P aug-cc-pVTZ          selected for orbital group  3
 Library entry C      D aug-cc-pVTZ          selected for orbital group  3
 Library entry C      F aug-cc-pVTZ          selected for orbital group  3

1PROGRAM * SEWARD (Integral evaluation for generally contracted gaussian basis sets)     Author: Roland Lindh, 1990

 Geometry written to block  1 of record 700


 Point group  C1  



 ATOMIC COORDINATES

 NR  ATOM    CHARGE       X              Y              Z

   1  O       8.00    0.000606602    2.191889560    0.000000000
   2  O       8.00    0.000782347   -2.191882001    0.000000000
   3  O       8.00   17.167018752   12.587558623    4.515152749
   4  H       1.00   18.662840013   13.171400169    3.679234965
   5  H       1.00   17.760365961   11.683083256    5.966693399
   6  C       6.00    0.036921469    0.000005669    0.000000000

 Bond lengths in Bohr (Angstrom)

 1-6  2.192184701  2-6  2.192185575  3-4  1.810279188  3-5  1.810278116
     (1.160054182)     (1.160054644)     (0.957958488)     (0.957957921)

 Bond angles

  1-6-2  178.10622893   4-3-5  105.10354852

 NUCLEAR CHARGE:                   32
 NUMBER OF PRIMITIVE AOS:         322
 NUMBER OF SYMMETRY AOS:          282
 NUMBER OF CONTRACTIONS:          230   ( 230A   )
 NUMBER OF CORE ORBITALS:           4   (   4A   )
 NUMBER OF VALENCE ORBITALS:       18   (  18A   )


 NUCLEAR REPULSION ENERGY   77.61566377


 Eigenvalues of metric

         1 0.348E-03 0.384E-03 0.392E-03 0.419E-03 0.896E-03 0.914E-03 0.167E-02 0.174E-02


 Contracted 2-electron integrals neglected if value below      1.0D-11
 AO integral compression algorithm  1   Integral accuracy      1.0D-11

     386.400 MB (compressed) written to integral file ( 22.8%)

     Node minimum: 117.441 MB, node maximum: 145.228 MB


 NUMBER OF SORTED TWO-ELECTRON INTEGRALS:  117629820.     BUFFER LENGTH:  32768
 NUMBER OF SEGMENTS:   8  SEGMENT LENGTH:   15997437      RECORD LENGTH: 524288

 Memory used in sort:      16.55 MW

 SORT1 READ   211926798. AND WROTE    26661589. INTEGRALS IN     80 RECORDS. CPU TIME:     1.90 SEC, REAL TIME:     2.22 SEC
 SORT2 READ    79454658. AND WROTE   352862895. INTEGRALS IN   1344 RECORDS. CPU TIME:     0.93 SEC, REAL TIME:     1.19 SEC

 Node minimum:   117612110.  Node maximum:   117629820. integrals

 OPERATOR DM      FOR CENTER  0  COORDINATES:    0.000000    0.000000    0.000000


 **********************************************************************************************************************************
 DATASETS  * FILE   NREC   LENGTH (MB)   RECORD NAMES
              1      18        4.62       500      610      700      900      950      970     1000      129      960     1100   
                                          VAR    BASINP    GEOM    SYMINP    ZMAT    AOBASIS   BASIS     P2S    ABASIS      S 
                                         1400     1410     1200     1210     1080     1600     1650     1700   
                                           T        V       H0       H01     AOSYM     SMH    MOLCAS    OPER   

 PROGRAMS   *        TOTAL       INT
 CPU TIMES  *         5.11      5.04
 REAL TIME  *         6.67 SEC
 DISK USED  *         1.34 GB      
 GA USED    *         0.00 MB       (max)       0.00 MB       (current)
 **********************************************************************************************************************************

1PROGRAM * RHF-SCF (CLOSED SHELL)       Authors: W. Meyer, H.-J. Werner


 NUMBER OF ELECTRONS:      16+   16-    SPACE SYMMETRY=1    SPIN SYMMETRY=Singlet 
 CONVERGENCE THRESHOLDS:    1.00E-05 (Density)    1.00E-07 (Energy)
 MAX. NUMBER OF ITERATIONS:       60
 INTERPOLATION TYPE:            DIIS
 INTERPOLATION STEPS:              2 (START)      1 (STEP)
 LEVEL SHIFTS:                  0.00 (CLOSED)  0.00 (OPEN) 



 Orbital guess generated from atomic densities. Full valence occupancy:   22

 Molecular orbital dump at record        2100.2

 ITERATION    DDIFF          GRAD             ENERGY        2-EL.EN.            DIPOLE MOMENTS         DIIS
    1      0.000D+00      0.000D+00      -263.66134590    350.720373    1.12568   -0.16409    0.31507    0
    2      0.000D+00      0.468D-02      -263.72654271    346.164264    0.64493   -0.09288    0.18690    1
    3      0.749D-02      0.317D-02      -263.76940611    348.715995    0.76568   -0.11090    0.21733    2
    4      0.307D-02      0.296D-03      -263.76989441    348.502460    0.76876   -0.11097    0.21859    3
    5      0.356D-03      0.858D-04      -263.76995081    348.506661    0.76366   -0.11058    0.21707    4
    6      0.132D-03      0.344D-04      -263.76995768    348.520385    0.76427   -0.11044    0.21730    5
    7      0.433D-04      0.850D-05      -263.76995839    348.512198    0.76385   -0.11050    0.21717    6
    8      0.141D-04      0.188D-05      -263.76995843    348.513463    0.76386   -0.11041    0.21717    7
    9      0.382D-05      0.726D-06      -263.76995844    348.513294    0.76383   -0.11049    0.21716    0

 Final occupancy:  16

 !RHF STATE 1.1 Energy               -263.769958435304
 Nuclear energy                        77.61566377
 One-electron energy                 -515.64226933
 Two-electron energy                  174.25664713
 Virial quotient                       -1.00173764
 !RHF STATE 1.1 Dipole moment           0.76383086    -0.11049182     0.21716430
 Dipole moment /Debye                   1.94133723    -0.28082379     0.55194045

 Orbital energies:

         1.1          2.1          3.1          4.1          5.1          6.1          7.1          8.1          9.1         10.1
    -20.651743   -20.651621   -20.567119   -11.459804    -1.531088    -1.477966    -1.352863    -0.799866    -0.742735    -0.718649

        11.1         12.1         13.1         14.1         15.1         16.1         17.1         18.1
     -0.714884    -0.714873    -0.583706    -0.543708    -0.543681    -0.510182     0.029375     0.047375


 **********************************************************************************************************************************
 DATASETS  * FILE   NREC   LENGTH (MB)   RECORD NAMES
              1      18        4.62       500      610      700      900      950      970     1000      129      960     1100   
                                          VAR    BASINP    GEOM    SYMINP    ZMAT    AOBASIS   BASIS     P2S    ABASIS      S 
                                         1400     1410     1200     1210     1080     1600     1650     1700   
                                           T        V       H0       H01     AOSYM     SMH    MOLCAS    OPER   

              2       3        1.44       700     1000     2100   
                                         GEOM     BASIS     RHF  

 PROGRAMS   *        TOTAL        HF       INT
 CPU TIMES  *        12.40      7.29      5.04
 REAL TIME  *        14.18 SEC
 DISK USED  *         1.37 GB      
 SF USED    *         0.21 MB      
 GA USED    *         0.00 MB       (max)       0.00 MB       (current)
 **********************************************************************************************************************************


1PROGRAM * CCSD (Closed-shell coupled cluster)     Authors: C. Hampel, H.-J. Werner, 1991, M. Deegan, P.J. Knowles, 1992

                                  CCSD-F12 implementation by  H.-J. Werner, 2007

                   Density fitting integral evaluation by F.R. Manby, 2003,2007, G. Knizia, 2010

 Basis set CC-PVTZ/JKFIT generated.      Number of basis functions:   376 
 Basis set AUG-CC-PVTZ/MP2FIT generated. Number of basis functions:   516 

 Convergence thresholds:  THRVAR = 1.00D-08  THRDEN = 1.00D-06

 CCSD(T)     terms to be evaluated (factor= 1.000)


 Number of core orbitals:           4 (   4 )
 Number of closed-shell orbitals:  12 (  12 )
 Number of external orbitals:     214 ( 214 )

 Molecular orbitals read from record     2100.2  Type=RHF/CANONICAL (state 1.1)

 MP2-F12 correlation treatment (H.-J. Werner, 2006)
 --------------------------------------------------

 Using MP2-F12 with ansatz 3C(FIX)

 Using projected zeroth-order Hamiltonian (+Z)

 FOCKRIB=T FOCKRIC=T FOCKRIP=T CABSP=T CABSA=T CABSK=T CABSF=T GBC=F EBC=F DMAT=T NOFIK=T NOPAO=1 SOLVE=-1  USEPAO=0
 EXCH_A= T EXCH_B= F EXCH_C= F EXCH_P= F
 
 Geminal basis:    OPTFULL  GEM_TYPE=SLATER  BETA=1.0  NGEM=6

 Optimizing Gaussian exponents for each gem_beta

 Geminal optimization for beta= 1.0000
 Weight function:   m=0, omega= 1.4646

 Augmented Hessian optimization of geminal fit. Trust ratio= 0.40000
 Convergence reached after   2 iterations. Final gradient= 8.24D-16, Step= 4.32D-06, Delta= 1.28D-09
 
 Alpha:                 0.19532     0.81920     2.85917     9.50073    35.69989   197.79328
 Coeff:                 0.27070     0.30552     0.18297     0.10986     0.06810     0.04224
 

 All pairs explicitly correlated. Number of r12-pairs:           78
 
 AO(A)-basis ORBITAL           loaded. Number of functions:     230
 RI(R)-basis CC-PVTZ/JKFIT     loaded. Number of functions:     376
 DF-basis CC-PVTZ/JKFIT        loaded. Number of functions:     376

 Screening thresholds:   THRAO=  1.00D-10  THRMO=  1.00D-09  THRPROD=  1.00D-09
                         THRSW=  1.00D-05  THROV=  1.00D-12  THRF12=   1.00D-08

 CPU time for Fock operators                      0.91 sec
 
 Construction of ABS:
 Smallest eigenvalue of S          2.57E-04  (threshold= 1.00E-08)
 Ratio eigmin/eigmax               1.83E-06  (threshold= 1.00E-09)
 Smallest eigenvalue of S kept     2.57E-04  (threshold= 2.57E-04, 0 functions deleted, 376 kept)
 
 Construction of CABS:
 Smallest eigenvalue of S          2.29E-08  (threshold= 1.00E-08)
 Ratio eigmin/eigmax               2.29E-08  (threshold= 1.00E-09)
 Smallest eigenvalue of S kept     2.29E-08  (threshold= 2.29E-08, 0 functions deleted, 376 kept)
 
 CPU time for CABS singles                        0.17 sec

 CABS-singles contribution of  -0.01596102 patched into reference energy.
 New reference energy        -263.78591945
 
 AO(A)-basis ORBITAL           loaded. Number of functions:     230
 RI(R)-basis CC-PVTZ/JKFIT     loaded. Number of functions:     376
 DF-basis AUG-CC-PVTZ/MP2FIT   loaded. Number of functions:     516

 Screening thresholds:   THRAO=  1.00D-10  THRMO=  1.00D-09  THRPROD=  1.00D-09
                         THRSW=  1.00D-05  THROV=  1.00D-12  THRF12=   1.00D-08

 CPU time for 3-index integral evaluation         1.58 sec
 CPU time for first  half transformation          0.17 sec ( 9117.3 MFLOP/sec)
 CPU time for second half transformation          0.02 sec ( 4441.1 MFLOP/sec)
 CPU time for sorting                             0.13 sec
 CPU time for fitting                             0.06 sec (23217.5 MFLOP/sec)
 CPU time for tilde quantities                    0.10 sec (18488.8 MFLOP/sec)
 CPU time for assembly                            0.84 sec (28130.9 MFLOP/sec)
 CPU time for tranop_f12                          0.97 sec (31715.8 MFLOP/sec)
 CPU time for f12 integrals (total)               6.03 sec
 F12-matrices built in  3 passes.
 F12-matrices built in  3 passes.
 F12-matrices built in  3 passes.
 F12-matrices built in  3 passes.
 FC-matrix built in  3 passes.
 CPU time for f12 matrices (total)                0.50 sec

 Diagonal F12 approximation with fixed coefficients:  TSING= 0.500,  TTRIP= 0.250 (scaled by -1/beta)

 DF-MP2-F12 energy corrections:
 ------------------------------
 Approx.                                    Singlet             Triplet             Total
 DF-MP2-F12/3*C(DX,FIX)                -0.097505162077     -0.016950860974     -0.114456023051
 DF-MP2-F12/3*C(FIX)                   -0.079905246400     -0.013407896265     -0.093313142666
 DF-MP2-F12/3C(FIX)                    -0.080263630001     -0.013430841483     -0.093694471484

 DF-MP2-F12 correlation energies:
 --------------------------------
 Approx.                                    Singlet             Triplet             Ecorr            Total Energy
 DF-MP2                                -0.537338076065     -0.342773964112     -0.880112040177   -264.666031490886
 DF-MP2-F12/3*C(DX,FIX)                -0.634843238141     -0.359724825086     -0.994568063227   -264.780487513937
 DF-MP2-F12/3*C(FIX)                   -0.617243322465     -0.356181860377     -0.973425182842   -264.759344633552
 DF-MP2-F12/3C(FIX)                    -0.617601706066     -0.356204805595     -0.973806511660   -264.759725962370

 SCS-DF-MP2 energies (F_SING= 1.20000  F_TRIP= 0.62222  F_PARALLEL= 0.33333):
 ----------------------------------------------------------------------------
 SCS-DF-MP2                            -0.858087268947   -264.644006719657
 SCS-DF-MP2-F12/3*C(DX,FIX)            -0.985640665823   -264.771560116532
 SCS-DF-MP2-F12/3*C(FIX)               -0.962316255637   -264.748235706347
 SCS-DF-MP2-F12/3C(FIX)                -0.962760592982   -264.748680043692
 Symmetry transformation completed.

 Number of N-1 electron functions:              12
 Number of N-2 electron functions:              78
 Number of singly external CSFs:              2568
 Number of doubly external CSFs:           3298596
 Total number of CSFs:                     3301165

 Pair and operator lists are different

 Length of J-op  integral file:             474.22 MB
 Length of K-op  integral file:             572.29 MB
 Length of 3-ext integral record:             0.00 MB

 For full I/O caching in triples, increase memory by 50.81 Mwords to 151.09 Mwords.

 Integral transformation finished. Total CPU:  12.55 sec, npass=  1  Memory used:  87.46 MW

 Reference energy:                   -263.78591945

 Adding F12 terms to K(Cij), methodcc=6,  factor=1.0

 ITER.      SQ.NORM     CORR.ENERGY   TOTAL ENERGY   ENERGY CHANGE        DEN1      VAR(S)    VAR(P)  DIIS     TIME
   1      1.20176100    -0.86219931  -264.64811876     0.01792914     0.04638161  0.71D-02  0.55D-02  1  1    27.31
   2      1.21598582    -0.85801522  -264.64393467     0.00418409    -0.02004567  0.85D-04  0.58D-03  2  2    34.32
   3      1.22129649    -0.85810933  -264.64402878    -0.00009411    -0.00235185  0.13D-03  0.32D-04  3  3    41.31
   4      1.22406676    -0.85798426  -264.64390371     0.00012508    -0.00140054  0.74D-05  0.40D-05  4  4    48.40
   5      1.22508027    -0.85794726  -264.64386671     0.00003699    -0.00036149  0.54D-06  0.28D-06  5  5    55.68
   6      1.22523976    -0.85792081  -264.64384026     0.00002645    -0.00000787  0.39D-07  0.23D-07  6  6    63.44
   7      1.22526857    -0.85791844  -264.64383789     0.00000238    -0.00000613  0.25D-08  0.39D-08  6  4    71.62
   8      1.22526886    -0.85791795  -264.64383741     0.00000048     0.00000192  0.38D-09  0.26D-09  6  1    79.38
   9      1.22526947    -0.85791802  -264.64383747    -0.00000007     0.00000055  0.25D-10  0.21D-10  6  2    87.22

 Norm of t1 vector:      0.10538144      S-energy:     0.00000000      T1 diagnostic:  0.01521050
                                                                       D1 diagnostic:  0.04464253

 Adding energy correction from Wij-K(Fij), methodcc=6  factor=1.0
 
  CCSD correlation energy              -0.857918021418
  MP2-F12 correction (uncoupled)       -0.092542811684
  C*T doubles correction               -0.001473682186
  f12b correction                       0.015403118071


 Total CPU time for triples:    231.39 sec


 RESULTS
 =======

  Reference energy                   -263.769958435304
  F12 singles correction               -0.015961015405

 F12 singles corrections added to reference energy

  New reference energy               -263.785919450709

  F12a singlet correction              -0.080466338294
  F12a triplet correction              -0.013550155577
  F12a total correction                -0.094016493871

 F12a corrections for ansatz F12/3C(FIX) added to CCSD energy
 
  CCSD-F12a singlet pair energy        -0.641548442877
  CCSD-F12a triplet pair energy        -0.310386075789
  CCSD-F12a correlation energy         -0.951934515289

  Triples (T) contribution             -0.037509713014
  Total correlation energy             -0.989444228303

  CCSD-F12a total energy             -264.737853965998
  CCSD[T]-F12a energy                -264.777880525050
  CCSD-T-F12a energy                 -264.774433936087
 !CCSD(T)-F12a total energy          -264.775363679012

 F12b corrections for ansatz F12/3C(FIX) added to CCSD(T)-F12a energy

  CCSD-F12b singlet pair energy        -0.627369219316
  CCSD-F12b triplet pair energy        -0.309162181279
  CCSD-F12b correlation energy         -0.936531397218

  Triples (T) contribution             -0.037509713014
  Total correlation energy             -0.974041110232

  CCSD-F12b total energy             -264.722450847927
  CCSD[T]-F12b energy                -264.762477406979
  CCSD-T-F12b energy                 -264.759030818016
 !CCSD(T)-F12b total energy          -264.759960560941

 Timing summary (sec):

 STEP                 CPU(USER)    SYS     CPU(TOT)    WALL
 Transformation         12.66      1.19     13.85     13.89
 CCSD iterations        66.38      3.66     70.04     70.09
 Triples               231.39      3.77    235.16    235.04
 MP2-F12                 8.20      1.22      9.42      9.42
 F12b energy             4.58      0.06      4.64      4.64

 Program statistics:

 Available memory in ccsd:                99998934
 Min. memory needed in ccsd:               8644845
 Max. memory used in ccsd:                11598633
 Max. memory used in cckext:               8768967 (10 integral passes)



 **********************************************************************************************************************************
 DATASETS  * FILE   NREC   LENGTH (MB)   RECORD NAMES
              1      20      527.84       500      610      700      900      950      970     1000      129      960     1100   
                                          VAR    BASINP    GEOM    SYMINP    ZMAT    AOBASIS   BASIS     P2S    ABASIS      S 
                                         1400     1410     1200     1210     1080     1600     1650     1700      960(1)  1380   
                                           T        V       H0       H01     AOSYM     SMH    MOLCAS    OPER    ABASIS    JKOP   

              2       5        2.50       700     1000     2100     7360     7350   
                                         GEOM     BASIS     RHF    F12ABS    EF12   

 PROGRAMS   *        TOTAL   CCSD(T)        HF       INT
 CPU TIMES  *       335.82    323.42      7.29      5.04
 REAL TIME  *       347.65 SEC
 DISK USED  *         2.24 GB      
 SF USED    *         1.91 GB      
 GA USED    *         2.40 MB       (max)       0.00 MB       (current)
 **********************************************************************************************************************************

     CCSD(T)-F12        HF-SCF  
   -264.75996056   -263.76995844
 **********************************************************************************************************************************
 Variable memory released
