
 Primary working directories    : /scratch/kee
 Secondary working directories  : /scratch/kee
 Wavefunction directory         : /home/kee/wfu/
 Main file repository           : /scratch/kee/

 ARCHNAME  : Linux/x86_64
 FC        : /opt/intel/composer_xe_2015.0.090/bin/intel64/ifort
 FCVERSION : 15.0.0
 BLASLIB   : -L/opt/intel/mkl/lib/intel64 -lmkl_intel_ilp64 -lmkl_sequential -lmkl_core
 id        : emory

 Nodes     nprocs
 node19       3
 Number of processes for MPI-2 version of Molpro:   nprocs(total)=    4   nprocs(compute)=    3   nprocs(helper)=    1
 ga_uses_ma=false, calling ma_init with nominal heap.
 GA-space will be limited to   8.0 MW (determined by -G option)

 Using customized tuning parameters: mindgm=7; mindgv=32; mindgc=1; mindgr=1; noblas=0; mincuda=1000; minvec=7
 default implementation of scratch files=sf  

 ***,co2h2o
 memory,100,m
 basis avtz
 geomtype = xyz
 geometry = {
 6
    -264.76489694
 O     0.82869278    1.16169550    0.00000000
 O     0.82658011   -1.16233555    0.00000000
 O    -2.09123459    0.00083754    0.00000000
 H    -2.67486760    0.76143219    0.00000000
 H    -2.67459949   -0.75996438    0.00000000
 C     0.80876519   -0.00029961    0.00000000
 }
 hf
 ccsd(t)-f12
 ---

 Variables initialized (665), CPU time= 0.01 sec
 Commands  initialized (462), CPU time= 0.01 sec, 486 directives.
 Default parameters read. Elapsed time= 0.05 sec

 Checking input...
 Passed
1


                                         ***  PROGRAM SYSTEM MOLPRO  ***
                         Copyright, University College Cardiff Consultants Limited, 2008

                                    Version 2010.1 linked 9 Dec 2014 15:06:28 


 **********************************************************************************************************************************
 LABEL *   co2h2o                                                                        
 Linux-2.6.32-504.el6.x86_64/node19(x86_64) 64 bit mpp version                           DATE: 11-Dec-16          TIME: 23:05:28  
 **********************************************************************************************************************************

 Patch level:      19
 **********************************************************************************************************************************

 Variable memory set to  100000000 words,  buffer space   230000 words

 SETTING BASIS          =    AVTZ
 SETTING GEOMTYPE       =    XYZ

Geometry recognized as XYZ



 Recomputing integrals since basis changed


 Using spherical harmonics

 Library entry O      S aug-cc-pVTZ          selected for orbital group  1
 Library entry O      P aug-cc-pVTZ          selected for orbital group  1
 Library entry O      D aug-cc-pVTZ          selected for orbital group  1
 Library entry O      F aug-cc-pVTZ          selected for orbital group  1
 Library entry H      S aug-cc-pVTZ          selected for orbital group  2
 Library entry H      P aug-cc-pVTZ          selected for orbital group  2
 Library entry H      D aug-cc-pVTZ          selected for orbital group  2
 Library entry C      S aug-cc-pVTZ          selected for orbital group  3
 Library entry C      P aug-cc-pVTZ          selected for orbital group  3
 Library entry C      D aug-cc-pVTZ          selected for orbital group  3
 Library entry C      F aug-cc-pVTZ          selected for orbital group  3

1PROGRAM * SEWARD (Integral evaluation for generally contracted gaussian basis sets)     Author: Roland Lindh, 1990

 Geometry written to block  1 of record 700


 Point group  Cs  



 ATOMIC COORDINATES

 NR  ATOM    CHARGE       X              Y              Z

   1  O       8.00    1.566002401    2.195286343    0.000000000
   2  O       8.00    1.562010034   -2.196495862    0.000000000
   3  O       8.00   -3.951860652    0.001582721    0.000000000
   4  H       1.00   -5.054767202    1.438898307    0.000000000
   5  H       1.00   -5.054260547   -1.436124548    0.000000000
   6  C       6.00    1.528344714   -0.000566181    0.000000000

 Bond lengths in Bohr (Angstrom)

 1-6  2.196175405  2-6  2.196187724  3-4  1.811706088  3-5  1.811708509
     (1.162165971)     (1.162172490)     (0.958713571)     (0.958714852)

 Bond angles

  1-6-2  178.13918425   4-3-5  105.01947441

 NUCLEAR CHARGE:                   32
 NUMBER OF PRIMITIVE AOS:         322
 NUMBER OF SYMMETRY AOS:          282
 NUMBER OF CONTRACTIONS:          230   ( 152A'  +  78A"  )
 NUMBER OF CORE ORBITALS:           4   (   4A'  +   0A"  )
 NUMBER OF VALENCE ORBITALS:       18   (  14A'  +   4A"  )


 NUCLEAR REPULSION ENERGY  104.08487772


 Eigenvalues of metric

         1 0.255E-03 0.279E-03 0.326E-03 0.330E-03 0.777E-03 0.818E-03 0.884E-03 0.150E-02
         2 0.306E-02 0.346E-02 0.527E-02 0.121E-01 0.130E-01 0.266E-01 0.293E-01 0.295E-01


 Contracted 2-electron integrals neglected if value below      1.0D-11
 AO integral compression algorithm  1   Integral accuracy      1.0D-11

     723.255 MB (compressed) written to integral file ( 43.6%)

     Node minimum: 240.124 MB, node maximum: 241.697 MB


 NUMBER OF SORTED TWO-ELECTRON INTEGRALS:   59950380.     BUFFER LENGTH:  32768
 NUMBER OF SEGMENTS:   4  SEGMENT LENGTH:   15995235      RECORD LENGTH: 524288

 Memory used in sort:      16.55 MW

 SORT1 READ   207531521. AND WROTE    54272314. INTEGRALS IN    156 RECORDS. CPU TIME:     3.62 SEC, REAL TIME:     4.15 SEC
 SORT2 READ   163365568. AND WROTE   179836431. INTEGRALS IN   2763 RECORDS. CPU TIME:     1.31 SEC, REAL TIME:     2.38 SEC

 Node minimum:    59940574.  Node maximum:    59950380. integrals

 OPERATOR DM      FOR CENTER  0  COORDINATES:    0.000000    0.000000    0.000000


 **********************************************************************************************************************************
 DATASETS  * FILE   NREC   LENGTH (MB)   RECORD NAMES
              1      18        3.74       500      610      700      900      950      970     1000      129      960     1100   
                                          VAR    BASINP    GEOM    SYMINP    ZMAT    AOBASIS   BASIS     P2S    ABASIS      S 
                                         1400     1410     1200     1210     1080     1600     1650     1700   
                                           T        V       H0       H01     AOSYM     SMH    MOLCAS    OPER   

 PROGRAMS   *        TOTAL       INT
 CPU TIMES  *        10.29     10.18
 REAL TIME  *        12.41 SEC
 DISK USED  *         2.65 GB      
 GA USED    *         0.00 MB       (max)       0.00 MB       (current)
 **********************************************************************************************************************************

1PROGRAM * RHF-SCF (CLOSED SHELL)       Authors: W. Meyer, H.-J. Werner


 NUMBER OF ELECTRONS:      16+   16-
 CONVERGENCE THRESHOLDS:    1.00E-05 (Density)    1.00E-07 (Energy)
 MAX. NUMBER OF ITERATIONS:       60
 INTERPOLATION TYPE:            DIIS
 INTERPOLATION STEPS:              2 (START)      1 (STEP)
 LEVEL SHIFTS:                  0.00 (CLOSED)  0.00 (OPEN) 



 Orbital guess generated from atomic densities. Full valence occupancy:   18   4

 Molecular orbital dump at record        2100.2

 Initial alpha occupancy:  13   3
 Initial beta  occupancy:  13   3
 Wave function symmetry:    1

 ITERATION    DDIFF          GRAD             ENERGY        2-EL.EN.            DIPOLE MOMENTS         DIIS
    1      0.000D+00      0.000D+00      -263.66891091    404.517425   -1.21254   -0.00010    0.00000    0
    2      0.000D+00      0.616D-02      -263.73238344    399.778382   -0.85707   -0.00004    0.00000    1
    3      0.992D-02      0.411D-02      -263.77220398    402.264230   -0.92676   -0.00003    0.00000    2
    4      0.402D-02      0.406D-03      -263.77270588    402.082157   -0.92644   -0.00005    0.00000    3
    5      0.490D-03      0.120D-03      -263.77276462    402.068494   -0.92163   -0.00004    0.00000    4
    6      0.184D-03      0.491D-04      -263.77277227    402.086035   -0.92234   -0.00004    0.00000    5
    7      0.616D-04      0.112D-04      -263.77277299    402.077451   -0.92196   -0.00004    0.00000    6
    8      0.200D-04      0.251D-05      -263.77277304    402.078856   -0.92200   -0.00004    0.00000    7
    9      0.526D-05      0.838D-06      -263.77277304    402.078610   -0.92198   -0.00004    0.00000    0

 Final occupancy:  13   3

 !RHF STATE 1.1 Energy               -263.772773041835
 Nuclear energy                       104.08487772
 One-electron energy                 -568.89695601
 Two-electron energy                  201.03930524
 Virial quotient                       -1.00181218
 !RHF STATE 1.1 Dipole moment          -0.92198119    -0.00003942     0.00000000
 Dipole moment /Debye                  -2.34328896    -0.00010020     0.00000000

 Orbital energies:

         1.1          2.1          3.1          4.1          5.1          6.1          7.1          8.1          9.1         10.1
    -20.632036   -20.631990   -20.577845   -11.442475    -1.510128    -1.457283    -1.363983    -0.781776    -0.729076    -0.724191

        11.1         12.1         13.1         14.1         15.1
     -0.696326    -0.595587    -0.525060     0.025564     0.047669

         1.2          2.2          3.2          4.2          5.2
     -0.694657    -0.524810    -0.521949     0.082728     0.168743


 **********************************************************************************************************************************
 DATASETS  * FILE   NREC   LENGTH (MB)   RECORD NAMES
              1      18        3.76       500      610      700      900      950      970     1000      129      960     1100   
                                          VAR    BASINP    GEOM    SYMINP    ZMAT    AOBASIS   BASIS     P2S    ABASIS      S 
                                         1400     1410     1200     1210     1080     1600     1650     1700   
                                           T        V       H0       H01     AOSYM     SMH    MOLCAS    OPER   

              2       3        0.96       700     1000     2100   
                                         GEOM     BASIS     RHF  

 PROGRAMS   *        TOTAL        HF       INT
 CPU TIMES  *        15.01      4.72     10.18
 REAL TIME  *        17.56 SEC
 DISK USED  *         2.68 GB      
 SF USED    *         0.12 MB      
 GA USED    *         0.00 MB       (max)       0.00 MB       (current)
 **********************************************************************************************************************************


1PROGRAM * CCSD (Closed-shell coupled cluster)     Authors: C. Hampel, H.-J. Werner, 1991, M. Deegan, P.J. Knowles, 1992

                                  CCSD-F12 implementation by  H.-J. Werner, 2007

                   Density fitting integral evaluation by F.R. Manby, 2003,2007, G. Knizia, 2010

 Basis set CC-PVTZ/JKFIT generated.      Number of basis functions:   376 
 Basis set AUG-CC-PVTZ/MP2FIT generated. Number of basis functions:   516 

 Convergence thresholds:  THRVAR = 1.00D-08  THRDEN = 1.00D-06

 CCSD(T)     terms to be evaluated (factor= 1.000)


 Number of core orbitals:           4 (   4   0 )
 Number of closed-shell orbitals:  12 (   9   3 )
 Number of external orbitals:     214 ( 139  75 )

 Molecular orbitals read from record     2100.2  Type=RHF/CANONICAL (state 1.1)

 MP2-F12 correlation treatment (H.-J. Werner, 2006)
 --------------------------------------------------

 Using MP2-F12 with ansatz 3C(FIX)

 Using projected zeroth-order Hamiltonian (+Z)

 FOCKRIB=T FOCKRIC=T FOCKRIP=T CABSP=T CABSA=T CABSK=T CABSF=T GBC=F EBC=F DMAT=T NOFIK=T NOPAO=1 SOLVE=-1  USEPAO=0
 EXCH_A= T EXCH_B= F EXCH_C= F EXCH_P= F
 
 Geminal basis:    OPTFULL  GEM_TYPE=SLATER  BETA=1.0  NGEM=6

 Optimizing Gaussian exponents for each gem_beta

 Geminal optimization for beta= 1.0000
 Weight function:   m=0, omega= 1.4646

 Augmented Hessian optimization of geminal fit. Trust ratio= 0.40000
 Convergence reached after   2 iterations. Final gradient= 8.24D-16, Step= 4.32D-06, Delta= 1.28D-09
 
 Alpha:                 0.19532     0.81920     2.85917     9.50073    35.69989   197.79328
 Coeff:                 0.27070     0.30552     0.18297     0.10986     0.06810     0.04224
 

 Symmetry turned off. Reference energy:       -263.772773041835

 All pairs explicitly correlated. Number of r12-pairs:           78
 
 AO(A)-basis ORBITAL           loaded. Number of functions:     230
 RI(R)-basis CC-PVTZ/JKFIT     loaded. Number of functions:     376
 DF-basis CC-PVTZ/JKFIT        loaded. Number of functions:     376

 Screening thresholds:   THRAO=  1.00D-10  THRMO=  1.00D-09  THRPROD=  1.00D-09
                         THRSW=  1.00D-05  THROV=  1.00D-12  THRF12=   1.00D-08

 CPU time for Fock operators                      1.08 sec
 
 Construction of ABS:
 Smallest eigenvalue of S          2.51E-04  (threshold= 1.00E-08)
 Ratio eigmin/eigmax               1.79E-06  (threshold= 1.00E-09)
 Smallest eigenvalue of S kept     2.51E-04  (threshold= 2.51E-04, 0 functions deleted, 376 kept)
 
 Construction of CABS:
 Smallest eigenvalue of S          2.26E-08  (threshold= 1.00E-08)
 Ratio eigmin/eigmax               2.26E-08  (threshold= 1.00E-09)
 Smallest eigenvalue of S kept     2.26E-08  (threshold= 2.26E-08, 0 functions deleted, 376 kept)
 
 CPU time for CABS singles                        0.18 sec

 CABS-singles contribution of  -0.01592189 patched into reference energy.
 New reference energy        -263.78869493
 
 AO(A)-basis ORBITAL           loaded. Number of functions:     230
 RI(R)-basis CC-PVTZ/JKFIT     loaded. Number of functions:     376
 DF-basis AUG-CC-PVTZ/MP2FIT   loaded. Number of functions:     516

 Screening thresholds:   THRAO=  1.00D-10  THRMO=  1.00D-09  THRPROD=  1.00D-09
                         THRSW=  1.00D-05  THROV=  1.00D-12  THRF12=   1.00D-08

 CPU time for 3-index integral evaluation         3.57 sec
 CPU time for first  half transformation          0.13 sec (22197.2 MFLOP/sec)
 CPU time for second half transformation          0.02 sec ( 5007.7 MFLOP/sec)
 CPU time for sorting                             0.18 sec
 CPU time for fitting                             0.07 sec (19900.7 MFLOP/sec)
 CPU time for tilde quantities                    0.09 sec (20543.1 MFLOP/sec)
 CPU time for assembly                            0.98 sec (26334.0 MFLOP/sec)
 CPU time for tranop_f12                          0.95 sec (31856.6 MFLOP/sec)
 CPU time for f12 integrals (total)               8.27 sec
 F12-matrices built in  3 passes.
 F12-matrices built in  3 passes.
 F12-matrices built in  3 passes.
 F12-matrices built in  3 passes.
 FC-matrix built in  3 passes.
 CPU time for f12 matrices (total)                0.59 sec

 Diagonal F12 approximation with fixed coefficients:  TSING= 0.500,  TTRIP= 0.250 (scaled by -1/beta)

 DF-MP2-F12 energy corrections:
 ------------------------------
 Approx.                                    Singlet             Triplet             Total
 DF-MP2-F12/3*C(DX,FIX)                -0.097357484788     -0.016975880807     -0.114333365595
 DF-MP2-F12/3*C(FIX)                   -0.079788604158     -0.013458914298     -0.093247518456
 DF-MP2-F12/3C(FIX)                    -0.080161525733     -0.013494478943     -0.093656004676

 DF-MP2-F12 correlation energies:
 --------------------------------
 Approx.                                    Singlet             Triplet             Ecorr            Total Energy
 DF-MP2                                -0.537776251310     -0.344160996892     -0.881937248201   -264.670632179608
 DF-MP2-F12/3*C(DX,FIX)                -0.635133736097     -0.361136877699     -0.996270613796   -264.784965545203
 DF-MP2-F12/3*C(FIX)                   -0.617564855467     -0.357619911190     -0.975184766657   -264.763879698064
 DF-MP2-F12/3C(FIX)                    -0.617937777042     -0.357655475835     -0.975593252877   -264.764288184284

 SCS-DF-MP2 energies (F_SING= 1.20000  F_TRIP= 0.62222  F_PARALLEL= 0.33333):
 ----------------------------------------------------------------------------
 SCS-DF-MP2                            -0.859476121860   -264.648171053267
 SCS-DF-MP2-F12/3*C(DX,FIX)            -0.986867873885   -264.775562805292
 SCS-DF-MP2-F12/3*C(FIX)               -0.963596882412   -264.752291813819
 SCS-DF-MP2-F12/3C(FIX)                -0.964066517414   -264.752761448822

 Symmetry restored.
 Symmetry transformation completed.

 Number of N-1 electron functions:              12
 Number of N-2 electron functions:              78
 Number of singly external CSFs:              1476
 Number of doubly external CSFs:           1686804
 Total number of CSFs:                     1688281

 Pair and operator lists are different

 Length of J-op  integral file:             466.42 MB
 Length of K-op  integral file:             526.62 MB
 Length of 3-ext integral record:             0.00 MB

 Memory could be reduced to 76.61 Mwords without degradation in triples

 Integral transformation finished. Total CPU:   5.01 sec, npass=  1  Memory used:  24.61 MW

 Reference energy:                   -263.78869493

 Adding F12 terms to K(Cij), methodcc=6,  factor=1.0

 ITER.      SQ.NORM     CORR.ENERGY   TOTAL ENERGY   ENERGY CHANGE        DEN1      VAR(S)    VAR(P)  DIIS     TIME
   1      1.20208068    -0.86385645  -264.65255138     0.01809477     0.04659644  0.72D-02  0.55D-02  1  1    18.58
   2      1.21636467    -0.85969543  -264.64839036     0.00416101    -0.02010589  0.89D-04  0.58D-03  2  2    21.71
   3      1.22173524    -0.85980716  -264.64850209    -0.00011172    -0.00236224  0.13D-03  0.32D-04  3  3    24.85
   4      1.22454629    -0.85967843  -264.64837337     0.00012872    -0.00141262  0.77D-05  0.40D-05  4  4    28.01
   5      1.22557619    -0.85964135  -264.64833628     0.00003708    -0.00036446  0.58D-06  0.28D-06  5  5    31.19
   6      1.22573781    -0.85961445  -264.64830938     0.00002690    -0.00000769  0.42D-07  0.24D-07  6  6    34.43
   7      1.22576856    -0.85961168  -264.64830661     0.00000278    -0.00000655  0.30D-08  0.39D-08  6  2    37.59
   8      1.22576852    -0.85961144  -264.64830637     0.00000024     0.00000215  0.41D-09  0.29D-09  6  1    40.77
   9      1.22576907    -0.85961149  -264.64830642    -0.00000005     0.00000064  0.38D-10  0.25D-10  6  4    43.98

 Norm of t1 vector:      0.10627473      S-energy:     0.00000003      T1 diagnostic:  0.01533944
                                                                       D1 diagnostic:  0.04558777

 Adding energy correction from Wij-K(Fij), methodcc=6  factor=1.0
 
  CCSD correlation energy              -0.859611492555
  MP2-F12 correction (uncoupled)       -0.092485061159
  C*T doubles correction               -0.001475486474
  f12b correction                       0.015412347349


 Total CPU time for triples:     79.81 sec


 RESULTS
 =======

  Reference energy                   -263.772773041835
  F12 singles correction               -0.015921889572

 F12 singles corrections added to reference energy

  New reference energy               -263.788694931407

  F12a singlet correction              -0.080354417473
  F12a triplet correction              -0.013606130159
  F12a total correction                -0.093960547632

 F12a corrections for ansatz F12/3C(FIX) added to CCSD energy
 
  CCSD-F12a singlet pair energy        -0.641719575768
  CCSD-F12a triplet pair energy        -0.311852492214
  CCSD-F12a correlation energy         -0.953572040187

  Triples (T) contribution             -0.037844435213
  Total correlation energy             -0.991416475400

  CCSD-F12a total energy             -264.742266971594
  CCSD[T]-F12a energy                -264.782650609800
  CCSD-T-F12a energy                 -264.779180722465
 !CCSD(T)-F12a total energy          -264.780111406807

 F12b corrections for ansatz F12/3C(FIX) added to CCSD(T)-F12a energy

  CCSD-F12b singlet pair energy        -0.627537811313
  CCSD-F12b triplet pair energy        -0.310621909320
  CCSD-F12b correlation energy         -0.938159692838

  Triples (T) contribution             -0.037844435213
  Total correlation energy             -0.976004128051

  CCSD-F12b total energy             -264.726854624245
  CCSD[T]-F12b energy                -264.767238262451
  CCSD-T-F12b energy                 -264.763768375116
 !CCSD(T)-F12b total energy          -264.764699059458

 Timing summary (sec):

 STEP                 CPU(USER)    SYS     CPU(TOT)    WALL
 Transformation          5.04      0.58      5.62      5.63
 CCSD iterations        28.44      1.78     30.22     30.22
 Triples                79.81      1.55     81.36     81.36
 MP2-F12                10.52      1.34     11.86     12.40
 F12b energy             2.15      0.05      2.20      2.20

 Program statistics:

 Available memory in ccsd:                99998934
 Min. memory needed in ccsd:               4458306
 Max. memory used in ccsd:                 5958390
 Max. memory used in cckext:               6352469 (10 integral passes)



 **********************************************************************************************************************************
 DATASETS  * FILE   NREC   LENGTH (MB)   RECORD NAMES
              1      20      269.66       500      610      700      900      950      970     1000      129      960     1100   
                                          VAR    BASINP    GEOM    SYMINP    ZMAT    AOBASIS   BASIS     P2S    ABASIS      S 
                                         1400     1410     1200     1210     1080     1600     1650     1700      960(1)  1380   
                                           T        V       H0       H01     AOSYM     SMH    MOLCAS    OPER    ABASIS    JKOP   

              2       5        1.55       700     1000     2100     7360     7350   
                                         GEOM     BASIS     RHF    F12ABS    EF12   

 PROGRAMS   *        TOTAL   CCSD(T)        HF       INT
 CPU TIMES  *       141.04    126.03      4.72     10.18
 REAL TIME  *       149.65 SEC
 DISK USED  *         3.12 GB      
 SF USED    *         1.53 GB      
 GA USED    *         2.40 MB       (max)       0.00 MB       (current)
 **********************************************************************************************************************************

     CCSD(T)-F12        HF-SCF  
   -264.76469906   -263.77277304
 **********************************************************************************************************************************
 Variable memory released
