
 Primary working directories    : /scratch/kee
 Secondary working directories  : /scratch/kee
 Wavefunction directory         : /home/kee/wfu/
 Main file repository           : /scratch/kee/

 ARCHNAME  : Linux/x86_64
 FC        : /opt/intel/composer_xe_2015.0.090/bin/intel64/ifort
 FCVERSION : 15.0.0
 BLASLIB   : -L/opt/intel/mkl/lib/intel64 -lmkl_intel_ilp64 -lmkl_sequential -lmkl_core
 id        : emory

 Nodes     nprocs
 node24       3
 Number of processes for MPI-2 version of Molpro:   nprocs(total)=    4   nprocs(compute)=    3   nprocs(helper)=    1
 ga_uses_ma=false, calling ma_init with nominal heap.
 GA-space will be limited to   8.0 MW (determined by -G option)

 Using customized tuning parameters: mindgm=7; mindgv=32; mindgc=1; mindgr=1; noblas=0; mincuda=1000; minvec=7
 default implementation of scratch files=sf  

 ***,co2h2o
 memory,100,m
 basis avtz
 geomtype = xyz
 geometry = {
 6
    -264.76489694
 O     0.82869278    1.16169550    0.00000000
 O     0.82658011   -1.16233555    0.00000000
 O    -2.64123454    0.00105320    0.00000000
 H    -3.22486755    0.76164785    0.00000000
 H    -3.22459944   -0.75974872    0.00000000
 C     0.80876519   -0.00029961    0.00000000
 }
 hf
 ccsd(t)-f12
 ---

 Variables initialized (665), CPU time= 0.00 sec
 Commands  initialized (462), CPU time= 0.01 sec, 486 directives.
 Default parameters read. Elapsed time= 0.06 sec

 Checking input...
 Passed
1


                                         ***  PROGRAM SYSTEM MOLPRO  ***
                         Copyright, University College Cardiff Consultants Limited, 2008

                                    Version 2010.1 linked 9 Dec 2014 15:06:28 


 **********************************************************************************************************************************
 LABEL *   co2h2o                                                                        
 Linux-2.6.32-504.el6.x86_64/node24(x86_64) 64 bit mpp version                           DATE: 07-Dec-16          TIME: 00:20:41  
 **********************************************************************************************************************************

 Patch level:      19
 **********************************************************************************************************************************

 Variable memory set to  100000000 words,  buffer space   230000 words

 SETTING BASIS          =    AVTZ
 SETTING GEOMTYPE       =    XYZ

Geometry recognized as XYZ



 Recomputing integrals since basis changed


 Using spherical harmonics

 Library entry O      S aug-cc-pVTZ          selected for orbital group  1
 Library entry O      P aug-cc-pVTZ          selected for orbital group  1
 Library entry O      D aug-cc-pVTZ          selected for orbital group  1
 Library entry O      F aug-cc-pVTZ          selected for orbital group  1
 Library entry H      S aug-cc-pVTZ          selected for orbital group  2
 Library entry H      P aug-cc-pVTZ          selected for orbital group  2
 Library entry H      D aug-cc-pVTZ          selected for orbital group  2
 Library entry C      S aug-cc-pVTZ          selected for orbital group  3
 Library entry C      P aug-cc-pVTZ          selected for orbital group  3
 Library entry C      D aug-cc-pVTZ          selected for orbital group  3
 Library entry C      F aug-cc-pVTZ          selected for orbital group  3

1PROGRAM * SEWARD (Integral evaluation for generally contracted gaussian basis sets)     Author: Roland Lindh, 1990

 Geometry written to block  1 of record 700


 Point group  Cs  



 ATOMIC COORDINATES

 NR  ATOM    CHARGE       X              Y              Z

   1  O       8.00    1.566002401    2.195286343    0.000000000
   2  O       8.00    1.562010034   -2.196495862    0.000000000
   3  O       8.00   -4.991209929    0.001990260    0.000000000
   4  H       1.00   -6.094116480    1.439305845    0.000000000
   5  H       1.00   -6.093609825   -1.435717009    0.000000000
   6  C       6.00    1.528344714   -0.000566181    0.000000000

 Bond lengths in Bohr (Angstrom)

 1-6  2.196175405  2-6  2.196187724  3-4  1.811706088  3-5  1.811708509
     (1.162165971)     (1.162172490)     (0.958713571)     (0.958714852)

 Bond angles

  1-6-2  178.13918425   4-3-5  105.01947441

 NUCLEAR CHARGE:                   32
 NUMBER OF PRIMITIVE AOS:         322
 NUMBER OF SYMMETRY AOS:          282
 NUMBER OF CONTRACTIONS:          230   ( 152A'  +  78A"  )
 NUMBER OF CORE ORBITALS:           4   (   4A'  +   0A"  )
 NUMBER OF VALENCE ORBITALS:       18   (  14A'  +   4A"  )


 NUCLEAR REPULSION ENERGY   98.85576278


 Eigenvalues of metric

         1 0.302E-03 0.329E-03 0.357E-03 0.363E-03 0.871E-03 0.887E-03 0.120E-02 0.160E-02
         2 0.313E-02 0.346E-02 0.551E-02 0.123E-01 0.133E-01 0.275E-01 0.295E-01 0.306E-01


 Contracted 2-electron integrals neglected if value below      1.0D-11
 AO integral compression algorithm  1   Integral accuracy      1.0D-11

     649.069 MB (compressed) written to integral file ( 39.1%)

     Node minimum: 185.336 MB, node maximum: 233.046 MB


 NUMBER OF SORTED TWO-ELECTRON INTEGRALS:   59950380.     BUFFER LENGTH:  32768
 NUMBER OF SEGMENTS:   4  SEGMENT LENGTH:   15995235      RECORD LENGTH: 524288

 Memory used in sort:      16.55 MW

 SORT1 READ   207531521. AND WROTE    50168583. INTEGRALS IN    146 RECORDS. CPU TIME:     5.69 SEC, REAL TIME:     6.26 SEC
 SORT2 READ   151175214. AND WROTE   179836431. INTEGRALS IN   2667 RECORDS. CPU TIME:     1.23 SEC, REAL TIME:     1.79 SEC

 Node minimum:    59940574.  Node maximum:    59950380. integrals

 OPERATOR DM      FOR CENTER  0  COORDINATES:    0.000000    0.000000    0.000000


 **********************************************************************************************************************************
 DATASETS  * FILE   NREC   LENGTH (MB)   RECORD NAMES
              1      18        3.74       500      610      700      900      950      970     1000      129      960     1100   
                                          VAR    BASINP    GEOM    SYMINP    ZMAT    AOBASIS   BASIS     P2S    ABASIS      S 
                                         1400     1410     1200     1210     1080     1600     1650     1700   
                                           T        V       H0       H01     AOSYM     SMH    MOLCAS    OPER   

 PROGRAMS   *        TOTAL       INT
 CPU TIMES  *        12.31     12.20
 REAL TIME  *        13.80 SEC
 DISK USED  *         2.46 GB      
 GA USED    *         0.00 MB       (max)       0.00 MB       (current)
 **********************************************************************************************************************************

1PROGRAM * RHF-SCF (CLOSED SHELL)       Authors: W. Meyer, H.-J. Werner


 NUMBER OF ELECTRONS:      16+   16-
 CONVERGENCE THRESHOLDS:    1.00E-05 (Density)    1.00E-07 (Energy)
 MAX. NUMBER OF ITERATIONS:       60
 INTERPOLATION TYPE:            DIIS
 INTERPOLATION STEPS:              2 (START)      1 (STEP)
 LEVEL SHIFTS:                  0.00 (CLOSED)  0.00 (OPEN) 



 Orbital guess generated from atomic densities. Full valence occupancy:   18   4

 Molecular orbital dump at record        2100.2

 Initial alpha occupancy:  13   3
 Initial beta  occupancy:  13   3
 Wave function symmetry:    1

 ITERATION    DDIFF          GRAD             ENERGY        2-EL.EN.            DIPOLE MOMENTS         DIIS
    1      0.000D+00      0.000D+00      -263.66576017    393.863333   -1.19016   -0.00012    0.00000    0
    2      0.000D+00      0.622D-02      -263.73000328    389.130166   -0.78639   -0.00007    0.00000    1
    3      0.998D-02      0.418D-02      -263.77135518    391.672075   -0.87877   -0.00006    0.00000    2
    4      0.408D-02      0.404D-03      -263.77185157    391.474672   -0.88076   -0.00007    0.00000    3
    5      0.488D-03      0.118D-03      -263.77190981    391.468615   -0.87618   -0.00006    0.00000    4
    6      0.182D-03      0.481D-04      -263.77191722    391.484841   -0.87698   -0.00007    0.00000    5
    7      0.612D-04      0.114D-04      -263.77191795    391.476259   -0.87659   -0.00006    0.00000    6
    8      0.198D-04      0.253D-05      -263.77191799    391.477605   -0.87662   -0.00006    0.00000    7
    9      0.535D-05      0.845D-06      -263.77191799    391.477383   -0.87659   -0.00006    0.00000    0

 Final occupancy:  13   3

 !RHF STATE 1.1 Energy               -263.771917994453
 Nuclear energy                        98.85576278
 One-electron energy                 -558.36637218
 Two-electron energy                  195.73869141
 Virial quotient                       -1.00184872
 !RHF STATE 1.1 Dipole moment          -0.87658873    -0.00006388     0.00000000
 Dipole moment /Debye                  -2.22792038    -0.00016235     0.00000000

 Orbital energies:

         1.1          2.1          3.1          4.1          5.1          6.1          7.1          8.1          9.1         10.1
    -20.637910   -20.637864   -20.574161   -11.447442    -1.515619    -1.462684    -1.359546    -0.786689    -0.729170    -0.724807

        11.1         12.1         13.1         14.1         15.1
     -0.699479    -0.591986    -0.529808     0.026696     0.047621

         1.2          2.2          3.2          4.2          5.2
     -0.699952    -0.529947    -0.517432     0.082037     0.167082


 **********************************************************************************************************************************
 DATASETS  * FILE   NREC   LENGTH (MB)   RECORD NAMES
              1      18        3.76       500      610      700      900      950      970     1000      129      960     1100   
                                          VAR    BASINP    GEOM    SYMINP    ZMAT    AOBASIS   BASIS     P2S    ABASIS      S 
                                         1400     1410     1200     1210     1080     1600     1650     1700   
                                           T        V       H0       H01     AOSYM     SMH    MOLCAS    OPER   

              2       3        0.96       700     1000     2100   
                                         GEOM     BASIS     RHF  

 PROGRAMS   *        TOTAL        HF       INT
 CPU TIMES  *        17.14      4.83     12.20
 REAL TIME  *        18.96 SEC
 DISK USED  *         2.49 GB      
 SF USED    *         0.12 MB      
 GA USED    *         0.00 MB       (max)       0.00 MB       (current)
 **********************************************************************************************************************************


1PROGRAM * CCSD (Closed-shell coupled cluster)     Authors: C. Hampel, H.-J. Werner, 1991, M. Deegan, P.J. Knowles, 1992

                                  CCSD-F12 implementation by  H.-J. Werner, 2007

                   Density fitting integral evaluation by F.R. Manby, 2003,2007, G. Knizia, 2010

 Basis set CC-PVTZ/JKFIT generated.      Number of basis functions:   376 
 Basis set AUG-CC-PVTZ/MP2FIT generated. Number of basis functions:   516 

 Convergence thresholds:  THRVAR = 1.00D-08  THRDEN = 1.00D-06

 CCSD(T)     terms to be evaluated (factor= 1.000)


 Number of core orbitals:           4 (   4   0 )
 Number of closed-shell orbitals:  12 (   9   3 )
 Number of external orbitals:     214 ( 139  75 )

 Molecular orbitals read from record     2100.2  Type=RHF/CANONICAL (state 1.1)

 MP2-F12 correlation treatment (H.-J. Werner, 2006)
 --------------------------------------------------

 Using MP2-F12 with ansatz 3C(FIX)

 Using projected zeroth-order Hamiltonian (+Z)

 FOCKRIB=T FOCKRIC=T FOCKRIP=T CABSP=T CABSA=T CABSK=T CABSF=T GBC=F EBC=F DMAT=T NOFIK=T NOPAO=1 SOLVE=-1  USEPAO=0
 EXCH_A= T EXCH_B= F EXCH_C= F EXCH_P= F
 
 Geminal basis:    OPTFULL  GEM_TYPE=SLATER  BETA=1.0  NGEM=6

 Optimizing Gaussian exponents for each gem_beta

 Geminal optimization for beta= 1.0000
 Weight function:   m=0, omega= 1.4646

 Augmented Hessian optimization of geminal fit. Trust ratio= 0.40000
 Convergence reached after   2 iterations. Final gradient= 8.24D-16, Step= 4.32D-06, Delta= 1.28D-09
 
 Alpha:                 0.19532     0.81920     2.85917     9.50073    35.69989   197.79328
 Coeff:                 0.27070     0.30552     0.18297     0.10986     0.06810     0.04224
 

 Symmetry turned off. Reference energy:       -263.771917994453

 All pairs explicitly correlated. Number of r12-pairs:           78
 
 AO(A)-basis ORBITAL           loaded. Number of functions:     230
 RI(R)-basis CC-PVTZ/JKFIT     loaded. Number of functions:     376
 DF-basis CC-PVTZ/JKFIT        loaded. Number of functions:     376

 Screening thresholds:   THRAO=  1.00D-10  THRMO=  1.00D-09  THRPROD=  1.00D-09
                         THRSW=  1.00D-05  THROV=  1.00D-12  THRF12=   1.00D-08

 CPU time for Fock operators                      1.08 sec
 
 Construction of ABS:
 Smallest eigenvalue of S          2.57E-04  (threshold= 1.00E-08)
 Ratio eigmin/eigmax               1.83E-06  (threshold= 1.00E-09)
 Smallest eigenvalue of S kept     2.57E-04  (threshold= 2.57E-04, 0 functions deleted, 376 kept)
 
 Construction of CABS:
 Smallest eigenvalue of S          2.27E-08  (threshold= 1.00E-08)
 Ratio eigmin/eigmax               2.27E-08  (threshold= 1.00E-09)
 Smallest eigenvalue of S kept     2.27E-08  (threshold= 2.27E-08, 0 functions deleted, 376 kept)
 
 CPU time for CABS singles                        0.18 sec

 CABS-singles contribution of  -0.01592006 patched into reference energy.
 New reference energy        -263.78783806
 
 AO(A)-basis ORBITAL           loaded. Number of functions:     230
 RI(R)-basis CC-PVTZ/JKFIT     loaded. Number of functions:     376
 DF-basis AUG-CC-PVTZ/MP2FIT   loaded. Number of functions:     516

 Screening thresholds:   THRAO=  1.00D-10  THRMO=  1.00D-09  THRPROD=  1.00D-09
                         THRSW=  1.00D-05  THROV=  1.00D-12  THRF12=   1.00D-08

 CPU time for 3-index integral evaluation         3.11 sec
 CPU time for first  half transformation          0.36 sec ( 8597.2 MFLOP/sec)
 CPU time for second half transformation          0.03 sec ( 3388.5 MFLOP/sec)
 CPU time for sorting                             0.15 sec
 CPU time for fitting                             0.11 sec (12741.6 MFLOP/sec)
 CPU time for tilde quantities                    0.10 sec (18488.8 MFLOP/sec)
 CPU time for assembly                            0.84 sec (27985.2 MFLOP/sec)
 CPU time for tranop_f12                          0.94 sec (31608.1 MFLOP/sec)
 CPU time for f12 integrals (total)               7.88 sec
 F12-matrices built in  3 passes.
 F12-matrices built in  3 passes.
 F12-matrices built in  3 passes.
 F12-matrices built in  3 passes.
 FC-matrix built in  3 passes.
 CPU time for f12 matrices (total)                0.55 sec

 Diagonal F12 approximation with fixed coefficients:  TSING= 0.500,  TTRIP= 0.250 (scaled by -1/beta)

 DF-MP2-F12 energy corrections:
 ------------------------------
 Approx.                                    Singlet             Triplet             Total
 DF-MP2-F12/3*C(DX,FIX)                -0.097377129161     -0.016938956277     -0.114316085438
 DF-MP2-F12/3*C(FIX)                   -0.079812888663     -0.013411876983     -0.093224765647
 DF-MP2-F12/3C(FIX)                    -0.080177355875     -0.013439906698     -0.093617262574

 DF-MP2-F12 correlation energies:
 --------------------------------
 Approx.                                    Singlet             Triplet             Ecorr            Total Energy
 DF-MP2                                -0.537697768133     -0.343432599574     -0.881130367707   -264.668968423868
 DF-MP2-F12/3*C(DX,FIX)                -0.635074897294     -0.360371555851     -0.995446453145   -264.783284509306
 DF-MP2-F12/3*C(FIX)                   -0.617510656796     -0.356844476557     -0.974355133353   -264.762193189514
 DF-MP2-F12/3C(FIX)                    -0.617875124008     -0.356872506272     -0.974747630280   -264.762585686442

 SCS-DF-MP2 energies (F_SING= 1.20000  F_TRIP= 0.62222  F_PARALLEL= 0.33333):
 ----------------------------------------------------------------------------
 SCS-DF-MP2                            -0.858928717050   -264.646766773211
 SCS-DF-MP2-F12/3*C(DX,FIX)            -0.986321067060   -264.774159123221
 SCS-DF-MP2-F12/3*C(FIX)               -0.963049351346   -264.750887407508
 SCS-DF-MP2-F12/3C(FIX)                -0.963504152712   -264.751342208874

 Symmetry restored.
 Symmetry transformation completed.

 Number of N-1 electron functions:              12
 Number of N-2 electron functions:              78
 Number of singly external CSFs:              1476
 Number of doubly external CSFs:           1686804
 Total number of CSFs:                     1688281

 Pair and operator lists are different

 Length of J-op  integral file:             466.42 MB
 Length of K-op  integral file:             526.62 MB
 Length of 3-ext integral record:             0.00 MB

 Memory could be reduced to 76.61 Mwords without degradation in triples

 Integral transformation finished. Total CPU:   4.86 sec, npass=  1  Memory used:  24.61 MW

 Reference energy:                   -263.78783806

 Adding F12 terms to K(Cij), methodcc=6,  factor=1.0

 ITER.      SQ.NORM     CORR.ENERGY   TOTAL ENERGY   ENERGY CHANGE        DEN1      VAR(S)    VAR(P)  DIIS     TIME
   1      1.20210704    -0.86309566  -264.65093372     0.01805004     0.04660124  0.72D-02  0.55D-02  1  1    18.25
   2      1.21640165    -0.85890660  -264.64674466     0.00418906    -0.02011664  0.87D-04  0.59D-03  2  2    21.59
   3      1.22176906    -0.85901097  -264.64684903    -0.00010437    -0.00236587  0.13D-03  0.32D-04  3  3    24.81
   4      1.22457555    -0.85888341  -264.64672146     0.00012757    -0.00141211  0.76D-05  0.41D-05  4  4    27.88
   5      1.22560513    -0.85884599  -264.64668405     0.00003741    -0.00036536  0.56D-06  0.28D-06  5  5    31.01
   6      1.22576698    -0.85881911  -264.64665717     0.00002688    -0.00000796  0.40D-07  0.24D-07  6  6    34.13
   7      1.22579647    -0.85881668  -264.64665474     0.00000243    -0.00000622  0.28D-08  0.40D-08  6  4    37.22
   8      1.22579688    -0.85881617  -264.64665422     0.00000051     0.00000190  0.40D-09  0.28D-09  6  1    40.30
   9      1.22579747    -0.85881624  -264.64665429    -0.00000007     0.00000058  0.29D-10  0.23D-10  6  2    43.38

 Norm of t1 vector:      0.10606587      S-energy:    -0.00000003      T1 diagnostic:  0.01530929
                                                                       D1 diagnostic:  0.04520557

 Adding energy correction from Wij-K(Fij), methodcc=6  factor=1.0
 
  CCSD correlation energy              -0.858816236577
  MP2-F12 correction (uncoupled)       -0.092459010942
  C*T doubles correction               -0.001472345038
  f12b correction                       0.015405990781


 Total CPU time for triples:     73.95 sec


 RESULTS
 =======

  Reference energy                   -263.771917994453
  F12 singles correction               -0.015920061709

 F12 singles corrections added to reference energy

  New reference energy               -263.787838056161

  F12a singlet correction              -0.080375320849
  F12a triplet correction              -0.013556035132
  F12a total correction                -0.093931355981

 F12a corrections for ansatz F12/3C(FIX) added to CCSD energy
 
  CCSD-F12a singlet pair energy        -0.641765484200
  CCSD-F12a triplet pair energy        -0.310982076595
  CCSD-F12a correlation energy         -0.952747592557

  Triples (T) contribution             -0.037708457727
  Total correlation energy             -0.990456050285

  CCSD-F12a total energy             -264.740585648719
  CCSD[T]-F12a energy                -264.780832947534
  CCSD-T-F12a energy                 -264.777360715060
 !CCSD(T)-F12a total energy          -264.778294106446

 F12b corrections for ansatz F12/3C(FIX) added to CCSD(T)-F12a energy

  CCSD-F12b singlet pair energy        -0.627584915391
  CCSD-F12b triplet pair energy        -0.309756654623
  CCSD-F12b correlation energy         -0.937341601777

  Triples (T) contribution             -0.037708457727
  Total correlation energy             -0.975050059504

  CCSD-F12b total energy             -264.725179657938
  CCSD[T]-F12b energy                -264.765426956753
  CCSD-T-F12b energy                 -264.761954724279
 !CCSD(T)-F12b total energy          -264.762888115665

 Timing summary (sec):

 STEP                 CPU(USER)    SYS     CPU(TOT)    WALL
 Transformation          4.89      0.61      5.50      5.51
 CCSD iterations        28.32      1.69     30.01     30.12
 Triples                73.95      1.47     75.42     75.39
 MP2-F12                10.18      1.47     11.65     11.72
 F12b energy             2.09      0.04      2.13      2.12

 Program statistics:

 Available memory in ccsd:                99998934
 Min. memory needed in ccsd:               4458306
 Max. memory used in ccsd:                 5958390
 Max. memory used in cckext:               6352469 (10 integral passes)



 **********************************************************************************************************************************
 DATASETS  * FILE   NREC   LENGTH (MB)   RECORD NAMES
              1      20      269.66       500      610      700      900      950      970     1000      129      960     1100   
                                          VAR    BASINP    GEOM    SYMINP    ZMAT    AOBASIS   BASIS     P2S    ABASIS      S 
                                         1400     1410     1200     1210     1080     1600     1650     1700      960(1)  1380   
                                           T        V       H0       H01     AOSYM     SMH    MOLCAS    OPER    ABASIS    JKOP   

              2       5        1.55       700     1000     2100     7360     7350   
                                         GEOM     BASIS     RHF    F12ABS    EF12   

 PROGRAMS   *        TOTAL   CCSD(T)        HF       INT
 CPU TIMES  *       136.59    119.44      4.83     12.20
 REAL TIME  *       144.09 SEC
 DISK USED  *         2.93 GB      
 SF USED    *         1.53 GB      
 GA USED    *         2.40 MB       (max)       0.00 MB       (current)
 **********************************************************************************************************************************

     CCSD(T)-F12        HF-SCF  
   -264.76288812   -263.77191799
 **********************************************************************************************************************************
 Variable memory released
