
 Primary working directories    : /scratch/kee
 Secondary working directories  : /scratch/kee
 Wavefunction directory         : /home/kee/wfu/
 Main file repository           : /scratch/kee/

 ARCHNAME  : Linux/x86_64
 FC        : /opt/intel/composer_xe_2015.0.090/bin/intel64/ifort
 FCVERSION : 15.0.0
 BLASLIB   : -L/opt/intel/mkl/lib/intel64 -lmkl_intel_ilp64 -lmkl_sequential -lmkl_core
 id        : emory

 Nodes     nprocs
 node24       3
 Number of processes for MPI-2 version of Molpro:   nprocs(total)=    4   nprocs(compute)=    3   nprocs(helper)=    1
 ga_uses_ma=false, calling ma_init with nominal heap.
 GA-space will be limited to   8.0 MW (determined by -G option)

 Using customized tuning parameters: mindgm=7; mindgv=32; mindgc=1; mindgr=1; noblas=0; mincuda=1000; minvec=7
 default implementation of scratch files=sf  

 ***,co2h2o
 memory,100,m
 basis avtz
 geomtype = xyz
 geometry = {
 6
    -264.76489694
 O     0.82869278    1.16169550    0.00000000
 O     0.82658011   -1.16233555    0.00000000
 O    -2.59123455    0.00103360    0.00000000
 H    -3.17486756    0.76162825    0.00000000
 H    -3.17459945   -0.75976832    0.00000000
 C     0.80876519   -0.00029961    0.00000000
 }
 hf
 ccsd(t)-f12
 ---

 Variables initialized (665), CPU time= 0.00 sec
 Commands  initialized (462), CPU time= 0.01 sec, 486 directives.
 Default parameters read. Elapsed time= 0.04 sec

 Checking input...
 Passed
1


                                         ***  PROGRAM SYSTEM MOLPRO  ***
                         Copyright, University College Cardiff Consultants Limited, 2008

                                    Version 2010.1 linked 9 Dec 2014 15:06:28 


 **********************************************************************************************************************************
 LABEL *   co2h2o                                                                        
 Linux-2.6.32-504.el6.x86_64/node24(x86_64) 64 bit mpp version                           DATE: 07-Dec-16          TIME: 00:18:01  
 **********************************************************************************************************************************

 Patch level:      19
 **********************************************************************************************************************************

 Variable memory set to  100000000 words,  buffer space   230000 words

 SETTING BASIS          =    AVTZ
 SETTING GEOMTYPE       =    XYZ

Geometry recognized as XYZ



 Recomputing integrals since basis changed


 Using spherical harmonics

 Library entry O      S aug-cc-pVTZ          selected for orbital group  1
 Library entry O      P aug-cc-pVTZ          selected for orbital group  1
 Library entry O      D aug-cc-pVTZ          selected for orbital group  1
 Library entry O      F aug-cc-pVTZ          selected for orbital group  1
 Library entry H      S aug-cc-pVTZ          selected for orbital group  2
 Library entry H      P aug-cc-pVTZ          selected for orbital group  2
 Library entry H      D aug-cc-pVTZ          selected for orbital group  2
 Library entry C      S aug-cc-pVTZ          selected for orbital group  3
 Library entry C      P aug-cc-pVTZ          selected for orbital group  3
 Library entry C      D aug-cc-pVTZ          selected for orbital group  3
 Library entry C      F aug-cc-pVTZ          selected for orbital group  3

1PROGRAM * SEWARD (Integral evaluation for generally contracted gaussian basis sets)     Author: Roland Lindh, 1990

 Geometry written to block  1 of record 700


 Point group  Cs  



 ATOMIC COORDINATES

 NR  ATOM    CHARGE       X              Y              Z

   1  O       8.00    1.566002401    2.195286343    0.000000000
   2  O       8.00    1.562010034   -2.196495862    0.000000000
   3  O       8.00   -4.896723642    0.001953221    0.000000000
   4  H       1.00   -5.999630192    1.439268806    0.000000000
   5  H       1.00   -5.999123537   -1.435754048    0.000000000
   6  C       6.00    1.528344714   -0.000566181    0.000000000

 Bond lengths in Bohr (Angstrom)

 1-6  2.196175405  2-6  2.196187724  3-4  1.811706088  3-5  1.811708509
     (1.162165971)     (1.162172490)     (0.958713571)     (0.958714852)

 Bond angles

  1-6-2  178.13918425   4-3-5  105.01947441

 NUCLEAR CHARGE:                   32
 NUMBER OF PRIMITIVE AOS:         322
 NUMBER OF SYMMETRY AOS:          282
 NUMBER OF CONTRACTIONS:          230   ( 152A'  +  78A"  )
 NUMBER OF CORE ORBITALS:           4   (   4A'  +   0A"  )
 NUMBER OF VALENCE ORBITALS:       18   (  14A'  +   4A"  )


 NUCLEAR REPULSION ENERGY   99.27059318


 Eigenvalues of metric

         1 0.298E-03 0.325E-03 0.354E-03 0.362E-03 0.866E-03 0.887E-03 0.116E-02 0.159E-02
         2 0.313E-02 0.346E-02 0.549E-02 0.123E-01 0.133E-01 0.274E-01 0.295E-01 0.306E-01


 Contracted 2-electron integrals neglected if value below      1.0D-11
 AO integral compression algorithm  1   Integral accuracy      1.0D-11

     655.884 MB (compressed) written to integral file ( 39.5%)

     Node minimum: 192.676 MB, node maximum: 245.367 MB


 NUMBER OF SORTED TWO-ELECTRON INTEGRALS:   59950380.     BUFFER LENGTH:  32768
 NUMBER OF SEGMENTS:   4  SEGMENT LENGTH:   15995235      RECORD LENGTH: 524288

 Memory used in sort:      16.55 MW

 SORT1 READ   207531521. AND WROTE    50578994. INTEGRALS IN    147 RECORDS. CPU TIME:     3.52 SEC, REAL TIME:     4.07 SEC
 SORT2 READ   152401345. AND WROTE   179836431. INTEGRALS IN   2493 RECORDS. CPU TIME:     1.25 SEC, REAL TIME:     2.46 SEC

 Node minimum:    59940574.  Node maximum:    59950380. integrals

 OPERATOR DM      FOR CENTER  0  COORDINATES:    0.000000    0.000000    0.000000


 **********************************************************************************************************************************
 DATASETS  * FILE   NREC   LENGTH (MB)   RECORD NAMES
              1      18        3.74       500      610      700      900      950      970     1000      129      960     1100   
                                          VAR    BASINP    GEOM    SYMINP    ZMAT    AOBASIS   BASIS     P2S    ABASIS      S 
                                         1400     1410     1200     1210     1080     1600     1650     1700   
                                           T        V       H0       H01     AOSYM     SMH    MOLCAS    OPER   

 PROGRAMS   *        TOTAL       INT
 CPU TIMES  *        11.46     11.37
 REAL TIME  *        14.11 SEC
 DISK USED  *         2.48 GB      
 GA USED    *         0.00 MB       (max)       0.00 MB       (current)
 **********************************************************************************************************************************

1PROGRAM * RHF-SCF (CLOSED SHELL)       Authors: W. Meyer, H.-J. Werner


 NUMBER OF ELECTRONS:      16+   16-
 CONVERGENCE THRESHOLDS:    1.00E-05 (Density)    1.00E-07 (Energy)
 MAX. NUMBER OF ITERATIONS:       60
 INTERPOLATION TYPE:            DIIS
 INTERPOLATION STEPS:              2 (START)      1 (STEP)
 LEVEL SHIFTS:                  0.00 (CLOSED)  0.00 (OPEN) 



 Orbital guess generated from atomic densities. Full valence occupancy:   18   4

 Molecular orbital dump at record        2100.2

 Initial alpha occupancy:  13   3
 Initial beta  occupancy:  13   3
 Wave function symmetry:    1

 ITERATION    DDIFF          GRAD             ENERGY        2-EL.EN.            DIPOLE MOMENTS         DIIS
    1      0.000D+00      0.000D+00      -263.66602307    394.708121   -1.19112   -0.00012    0.00000    0
    2      0.000D+00      0.622D-02      -263.73021095    389.973495   -0.79112   -0.00006    0.00000    1
    3      0.998D-02      0.418D-02      -263.77146038    392.512397   -0.88199   -0.00006    0.00000    2
    4      0.407D-02      0.404D-03      -263.77195698    392.315848   -0.88386   -0.00007    0.00000    3
    5      0.488D-03      0.118D-03      -263.77201524    392.309352   -0.87929   -0.00006    0.00000    4
    6      0.182D-03      0.482D-04      -263.77202266    392.325659   -0.88009   -0.00006    0.00000    5
    7      0.612D-04      0.114D-04      -263.77202339    392.317074   -0.87970   -0.00006    0.00000    6
    8      0.198D-04      0.253D-05      -263.77202344    392.318423   -0.87972   -0.00006    0.00000    7
    9      0.535D-05      0.845D-06      -263.77202344    392.318199   -0.87970   -0.00006    0.00000    0

 Final occupancy:  13   3

 !RHF STATE 1.1 Energy               -263.772023440511
 Nuclear energy                        99.27059318
 One-electron energy                 -559.20171620
 Two-electron energy                  196.15909958
 Virial quotient                       -1.00184834
 !RHF STATE 1.1 Dipole moment          -0.87969572    -0.00006239     0.00000000
 Dipole moment /Debye                  -2.23581705    -0.00015858     0.00000000

 Orbital energies:

         1.1          2.1          3.1          4.1          5.1          6.1          7.1          8.1          9.1         10.1
    -20.637492   -20.637446   -20.574434   -11.447070    -1.515212    -1.462285    -1.359845    -0.786323    -0.728822    -0.725077

        11.1         12.1         13.1         14.1         15.1
     -0.699126    -0.592318    -0.529441     0.026612     0.047632

         1.2          2.2          3.2          4.2          5.2
     -0.699558    -0.529569    -0.517741     0.082112     0.167299


 **********************************************************************************************************************************
 DATASETS  * FILE   NREC   LENGTH (MB)   RECORD NAMES
              1      18        3.76       500      610      700      900      950      970     1000      129      960     1100   
                                          VAR    BASINP    GEOM    SYMINP    ZMAT    AOBASIS   BASIS     P2S    ABASIS      S 
                                         1400     1410     1200     1210     1080     1600     1650     1700   
                                           T        V       H0       H01     AOSYM     SMH    MOLCAS    OPER   

              2       3        0.96       700     1000     2100   
                                         GEOM     BASIS     RHF  

 PROGRAMS   *        TOTAL        HF       INT
 CPU TIMES  *        16.25      4.79     11.37
 REAL TIME  *        19.26 SEC
 DISK USED  *         2.51 GB      
 SF USED    *         0.12 MB      
 GA USED    *         0.00 MB       (max)       0.00 MB       (current)
 **********************************************************************************************************************************


1PROGRAM * CCSD (Closed-shell coupled cluster)     Authors: C. Hampel, H.-J. Werner, 1991, M. Deegan, P.J. Knowles, 1992

                                  CCSD-F12 implementation by  H.-J. Werner, 2007

                   Density fitting integral evaluation by F.R. Manby, 2003,2007, G. Knizia, 2010

 Basis set CC-PVTZ/JKFIT generated.      Number of basis functions:   376 
 Basis set AUG-CC-PVTZ/MP2FIT generated. Number of basis functions:   516 

 Convergence thresholds:  THRVAR = 1.00D-08  THRDEN = 1.00D-06

 CCSD(T)     terms to be evaluated (factor= 1.000)


 Number of core orbitals:           4 (   4   0 )
 Number of closed-shell orbitals:  12 (   9   3 )
 Number of external orbitals:     214 ( 139  75 )

 Molecular orbitals read from record     2100.2  Type=RHF/CANONICAL (state 1.1)

 MP2-F12 correlation treatment (H.-J. Werner, 2006)
 --------------------------------------------------

 Using MP2-F12 with ansatz 3C(FIX)

 Using projected zeroth-order Hamiltonian (+Z)

 FOCKRIB=T FOCKRIC=T FOCKRIP=T CABSP=T CABSA=T CABSK=T CABSF=T GBC=F EBC=F DMAT=T NOFIK=T NOPAO=1 SOLVE=-1  USEPAO=0
 EXCH_A= T EXCH_B= F EXCH_C= F EXCH_P= F
 
 Geminal basis:    OPTFULL  GEM_TYPE=SLATER  BETA=1.0  NGEM=6

 Optimizing Gaussian exponents for each gem_beta

 Geminal optimization for beta= 1.0000
 Weight function:   m=0, omega= 1.4646

 Augmented Hessian optimization of geminal fit. Trust ratio= 0.40000
 Convergence reached after   2 iterations. Final gradient= 8.24D-16, Step= 4.32D-06, Delta= 1.28D-09
 
 Alpha:                 0.19532     0.81920     2.85917     9.50073    35.69989   197.79328
 Coeff:                 0.27070     0.30552     0.18297     0.10986     0.06810     0.04224
 

 Symmetry turned off. Reference energy:       -263.772023440511

 All pairs explicitly correlated. Number of r12-pairs:           78
 
 AO(A)-basis ORBITAL           loaded. Number of functions:     230
 RI(R)-basis CC-PVTZ/JKFIT     loaded. Number of functions:     376
 DF-basis CC-PVTZ/JKFIT        loaded. Number of functions:     376

 Screening thresholds:   THRAO=  1.00D-10  THRMO=  1.00D-09  THRPROD=  1.00D-09
                         THRSW=  1.00D-05  THROV=  1.00D-12  THRF12=   1.00D-08

 CPU time for Fock operators                      1.08 sec
 
 Construction of ABS:
 Smallest eigenvalue of S          2.57E-04  (threshold= 1.00E-08)
 Ratio eigmin/eigmax               1.83E-06  (threshold= 1.00E-09)
 Smallest eigenvalue of S kept     2.57E-04  (threshold= 2.57E-04, 0 functions deleted, 376 kept)
 
 Construction of CABS:
 Smallest eigenvalue of S          2.27E-08  (threshold= 1.00E-08)
 Ratio eigmin/eigmax               2.27E-08  (threshold= 1.00E-09)
 Smallest eigenvalue of S kept     2.27E-08  (threshold= 2.27E-08, 0 functions deleted, 376 kept)
 
 CPU time for CABS singles                        0.19 sec

 CABS-singles contribution of  -0.01592077 patched into reference energy.
 New reference energy        -263.78794421
 
 AO(A)-basis ORBITAL           loaded. Number of functions:     230
 RI(R)-basis CC-PVTZ/JKFIT     loaded. Number of functions:     376
 DF-basis AUG-CC-PVTZ/MP2FIT   loaded. Number of functions:     516

 Screening thresholds:   THRAO=  1.00D-10  THRMO=  1.00D-09  THRPROD=  1.00D-09
                         THRSW=  1.00D-05  THROV=  1.00D-12  THRF12=   1.00D-08

 CPU time for 3-index integral evaluation         3.24 sec
 CPU time for first  half transformation          0.33 sec ( 9124.7 MFLOP/sec)
 CPU time for second half transformation          0.01 sec (11119.5 MFLOP/sec)
 CPU time for sorting                             0.19 sec
 CPU time for fitting                             0.07 sec (19900.7 MFLOP/sec)
 CPU time for tilde quantities                    0.06 sec (30814.7 MFLOP/sec)
 CPU time for assembly                            0.94 sec (24946.1 MFLOP/sec)
 CPU time for tranop_f12                          1.04 sec (28007.9 MFLOP/sec)
 CPU time for f12 integrals (total)               8.17 sec
 F12-matrices built in  3 passes.
 F12-matrices built in  3 passes.
 F12-matrices built in  3 passes.
 F12-matrices built in  3 passes.
 FC-matrix built in  3 passes.
 CPU time for f12 matrices (total)                0.57 sec

 Diagonal F12 approximation with fixed coefficients:  TSING= 0.500,  TTRIP= 0.250 (scaled by -1/beta)

 DF-MP2-F12 energy corrections:
 ------------------------------
 Approx.                                    Singlet             Triplet             Total
 DF-MP2-F12/3*C(DX,FIX)                -0.097374790685     -0.016940860784     -0.114315651469
 DF-MP2-F12/3*C(FIX)                   -0.079810891972     -0.013414694578     -0.093225586549
 DF-MP2-F12/3C(FIX)                    -0.080175993429     -0.013443188669     -0.093619182098

 DF-MP2-F12 correlation energies:
 --------------------------------
 Approx.                                    Singlet             Triplet             Ecorr            Total Energy
 DF-MP2                                -0.537701413465     -0.343471553187     -0.881172966652   -264.669117180593
 DF-MP2-F12/3*C(DX,FIX)                -0.635076204150     -0.360412413971     -0.995488618121   -264.783432832063
 DF-MP2-F12/3*C(FIX)                   -0.617512305436     -0.356886247765     -0.974398553201   -264.762342767143
 DF-MP2-F12/3C(FIX)                    -0.617877406894     -0.356914741856     -0.974792148750   -264.762736362691

 SCS-DF-MP2 energies (F_SING= 1.20000  F_TRIP= 0.62222  F_PARALLEL= 0.33333):
 ----------------------------------------------------------------------------
 SCS-DF-MP2                            -0.858957329252   -264.646901543193
 SCS-DF-MP2-F12/3*C(DX,FIX)            -0.986348058118   -264.774292272059
 SCS-DF-MP2-F12/3*C(FIX)               -0.963077320688   -264.751021534630
 SCS-DF-MP2-F12/3C(FIX)                -0.963533172094   -264.751477386035

 Symmetry restored.
 Symmetry transformation completed.

 Number of N-1 electron functions:              12
 Number of N-2 electron functions:              78
 Number of singly external CSFs:              1476
 Number of doubly external CSFs:           1686804
 Total number of CSFs:                     1688281

 Pair and operator lists are different

 Length of J-op  integral file:             466.42 MB
 Length of K-op  integral file:             526.62 MB
 Length of 3-ext integral record:             0.00 MB

 Memory could be reduced to 76.61 Mwords without degradation in triples

 Integral transformation finished. Total CPU:   4.87 sec, npass=  1  Memory used:  24.61 MW

 Reference energy:                   -263.78794421

 Adding F12 terms to K(Cij), methodcc=6,  factor=1.0

 ITER.      SQ.NORM     CORR.ENERGY   TOTAL ENERGY   ENERGY CHANGE        DEN1      VAR(S)    VAR(P)  DIIS     TIME
   1      1.20210758    -0.86313674  -264.65108095     0.01805147     0.04659938  0.72D-02  0.55D-02  1  1    19.00
   2      1.21640166    -0.85894956  -264.64689378     0.00418718    -0.02011560  0.88D-04  0.59D-03  2  2    22.07
   3      1.22176950    -0.85905436  -264.64699857    -0.00010479    -0.00236591  0.13D-03  0.32D-04  3  3    25.80
   4      1.22457635    -0.85892674  -264.64687096     0.00012761    -0.00141218  0.76D-05  0.41D-05  4  4    28.94
   5      1.22560590    -0.85888935  -264.64683357     0.00003739    -0.00036529  0.56D-06  0.28D-06  5  5    32.05
   6      1.22576769    -0.85886247  -264.64680669     0.00002688    -0.00000794  0.40D-07  0.24D-07  6  6    35.24
   7      1.22579719    -0.85886004  -264.64680426     0.00000243    -0.00000621  0.28D-08  0.40D-08  6  4    38.44
   8      1.22579760    -0.85885953  -264.64680374     0.00000051     0.00000189  0.40D-09  0.28D-09  6  1    41.59
   9      1.22579820    -0.85885960  -264.64680381    -0.00000007     0.00000058  0.29D-10  0.23D-10  6  2    45.87

 Norm of t1 vector:      0.10607678      S-energy:    -0.00000003      T1 diagnostic:  0.01531086
                                                                       D1 diagnostic:  0.04522538

 Adding energy correction from Wij-K(Fij), methodcc=6  factor=1.0
 
  CCSD correlation energy              -0.858859596046
  MP2-F12 correction (uncoupled)       -0.092459891062
  C*T doubles correction               -0.001472708203
  f12b correction                       0.015406300685


 Total CPU time for triples:     84.21 sec


 RESULTS
 =======

  Reference energy                   -263.772023440511
  F12 singles correction               -0.015920773431

 F12 singles corrections added to reference energy

  New reference energy               -263.787944213942

  F12a singlet correction              -0.080373559681
  F12a triplet correction              -0.013559039585
  F12a total correction                -0.093932599265

 F12a corrections for ansatz F12/3C(FIX) added to CCSD energy
 
  CCSD-F12a singlet pair energy        -0.641762351436
  CCSD-F12a triplet pair energy        -0.311029811657
  CCSD-F12a correlation energy         -0.952792195311

  Triples (T) contribution             -0.037716195218
  Total correlation energy             -0.990508390529

  CCSD-F12a total energy             -264.740736409253
  CCSD[T]-F12a energy                -264.780991400917
  CCSD-T-F12a energy                 -264.777519383830
 !CCSD(T)-F12a total energy          -264.778452604471

 F12b corrections for ansatz F12/3C(FIX) added to CCSD(T)-F12a energy

  CCSD-F12b singlet pair energy        -0.627581740984
  CCSD-F12b triplet pair energy        -0.309804121424
  CCSD-F12b correlation energy         -0.937385894626

  Triples (T) contribution             -0.037716195218
  Total correlation energy             -0.975102089844

  CCSD-F12b total energy             -264.725330108568
  CCSD[T]-F12b energy                -264.765585100232
  CCSD-T-F12b energy                 -264.762113083145
 !CCSD(T)-F12b total energy          -264.763046303786

 Timing summary (sec):

 STEP                 CPU(USER)    SYS     CPU(TOT)    WALL
 Transformation          4.91      0.59      5.50      5.50
 CCSD iterations        30.47      1.72     32.19     32.42
 Triples                84.21      1.61     85.82     85.80
 MP2-F12                10.51      1.23     11.74     11.82
 F12b energy             2.69      0.06      2.75      2.75

 Program statistics:

 Available memory in ccsd:                99998934
 Min. memory needed in ccsd:               4458306
 Max. memory used in ccsd:                 5958390
 Max. memory used in cckext:               6352469 (10 integral passes)



 **********************************************************************************************************************************
 DATASETS  * FILE   NREC   LENGTH (MB)   RECORD NAMES
              1      20      269.66       500      610      700      900      950      970     1000      129      960     1100   
                                          VAR    BASINP    GEOM    SYMINP    ZMAT    AOBASIS   BASIS     P2S    ABASIS      S 
                                         1400     1410     1200     1210     1080     1600     1650     1700      960(1)  1380   
                                           T        V       H0       H01     AOSYM     SMH    MOLCAS    OPER    ABASIS    JKOP   

              2       5        1.55       700     1000     2100     7360     7350   
                                         GEOM     BASIS     RHF    F12ABS    EF12   

 PROGRAMS   *        TOTAL   CCSD(T)        HF       INT
 CPU TIMES  *       149.22    132.97      4.79     11.37
 REAL TIME  *       157.88 SEC
 DISK USED  *         2.95 GB      
 SF USED    *         1.53 GB      
 GA USED    *         2.40 MB       (max)       0.00 MB       (current)
 **********************************************************************************************************************************

     CCSD(T)-F12        HF-SCF  
   -264.76304630   -263.77202344
 **********************************************************************************************************************************
 Variable memory released
