
 Primary working directories    : /scratch/kee
 Secondary working directories  : /scratch/kee
 Wavefunction directory         : /home/kee/wfu/
 Main file repository           : /scratch/kee/

 ARCHNAME  : Linux/x86_64
 FC        : /opt/intel/composer_xe_2015.0.090/bin/intel64/ifort
 FCVERSION : 15.0.0
 BLASLIB   : -L/opt/intel/mkl/lib/intel64 -lmkl_intel_ilp64 -lmkl_sequential -lmkl_core
 id        : emory

 Nodes     nprocs
 node15       3
 Number of processes for MPI-2 version of Molpro:   nprocs(total)=    4   nprocs(compute)=    3   nprocs(helper)=    1
 ga_uses_ma=false, calling ma_init with nominal heap.
 GA-space will be limited to   8.0 MW (determined by -G option)

 Using customized tuning parameters: mindgm=7; mindgv=32; mindgc=1; mindgr=1; noblas=0; mincuda=1000; minvec=7
 default implementation of scratch files=sf  

 ***,co2h2o
 memory,100,m
 basis avtz
 geomtype = xyz
 geometry = {
 6
       0.00000000
 O     0.02747900    1.16001200    0.00000000
 O    -0.00936500   -1.16396300    0.00000000
 O    10.62528299   -0.04507169    0.00000000
 H    11.01437799    0.39620231    0.75746400
 H    11.01437799    0.39620231   -0.75746400
 C     0.02536600   -0.00312200    0.00000000
 }
 hf
 ccsd(t)-f12
 ---

 Variables initialized (665), CPU time= 0.01 sec
 Commands  initialized (462), CPU time= 0.00 sec, 486 directives.
 Default parameters read. Elapsed time= 0.04 sec

 Checking input...
 Passed
1


                                         ***  PROGRAM SYSTEM MOLPRO  ***
                         Copyright, University College Cardiff Consultants Limited, 2008

                                    Version 2010.1 linked 9 Dec 2014 15:06:28 


 **********************************************************************************************************************************
 LABEL *   co2h2o                                                                        
 Linux-2.6.32-504.el6.x86_64/node15(x86_64) 64 bit mpp version                           DATE: 14-Dec-16          TIME: 23:48:14  
 **********************************************************************************************************************************

 Patch level:      19
 **********************************************************************************************************************************

 Variable memory set to  100000000 words,  buffer space   230000 words

 SETTING BASIS          =    AVTZ
 SETTING GEOMTYPE       =    XYZ

Geometry recognized as XYZ



 Recomputing integrals since basis changed


 Using spherical harmonics

 Library entry O      S aug-cc-pVTZ          selected for orbital group  1
 Library entry O      P aug-cc-pVTZ          selected for orbital group  1
 Library entry O      D aug-cc-pVTZ          selected for orbital group  1
 Library entry O      F aug-cc-pVTZ          selected for orbital group  1
 Library entry H      S aug-cc-pVTZ          selected for orbital group  2
 Library entry H      P aug-cc-pVTZ          selected for orbital group  2
 Library entry H      D aug-cc-pVTZ          selected for orbital group  2
 Library entry C      S aug-cc-pVTZ          selected for orbital group  3
 Library entry C      P aug-cc-pVTZ          selected for orbital group  3
 Library entry C      D aug-cc-pVTZ          selected for orbital group  3
 Library entry C      F aug-cc-pVTZ          selected for orbital group  3

1PROGRAM * SEWARD (Integral evaluation for generally contracted gaussian basis sets)     Author: Roland Lindh, 1990

 Geometry written to block  1 of record 700


 Point group  Cs  



 ATOMIC COORDINATES

 NR  ATOM    CHARGE       X              Y              Z

   1  O       8.00    0.051927784    2.192104989    0.000000000
   2  O       8.00   -0.017697285   -2.199571297    0.000000000
   3  O       8.00   20.078874920   -0.085173150    0.000000000
   4  H       1.00   20.814157909    0.748713859    1.431399514
   5  H       1.00   20.814157909    0.748713859   -1.431399514
   6  C       6.00    0.047934793   -0.005899725    0.000000000

 Bond lengths in Bohr (Angstrom)

 1-6  2.198008341  2-6  2.194653170  3-4  1.812432947  3-5  1.812432947
     (1.163135919)     (1.161360439)     (0.959098208)     (0.959098208)

 Bond angles

  1-6-2  178.39037465   4-3-5  104.32746287

 NUCLEAR CHARGE:                   32
 NUMBER OF PRIMITIVE AOS:         322
 NUMBER OF SYMMETRY AOS:          282
 NUMBER OF CONTRACTIONS:          230   ( 143A'  +  87A"  )
 NUMBER OF CORE ORBITALS:           4   (   4A'  +   0A"  )
 NUMBER OF VALENCE ORBITALS:       18   (  13A'  +   5A"  )


 NUCLEAR REPULSION ENERGY   78.29815030


 Eigenvalues of metric

         1 0.349E-03 0.385E-03 0.420E-03 0.903E-03 0.922E-03 0.175E-02 0.186E-02 0.317E-02
         2 0.395E-03 0.166E-02 0.318E-02 0.348E-02 0.509E-02 0.622E-02 0.100E-01 0.125E-01


 Contracted 2-electron integrals neglected if value below      1.0D-11
 AO integral compression algorithm  1   Integral accuracy      1.0D-11

     265.028 MB (compressed) written to integral file ( 27.0%)

     Node minimum: 86.770 MB, node maximum: 91.488 MB


 NUMBER OF SORTED TWO-ELECTRON INTEGRALS:   59530350.     BUFFER LENGTH:  32768
 NUMBER OF SEGMENTS:   4  SEGMENT LENGTH:   15999984      RECORD LENGTH: 524288

 Memory used in sort:      16.56 MW

 SORT1 READ   122533329. AND WROTE    17367586. INTEGRALS IN     51 RECORDS. CPU TIME:     1.20 SEC, REAL TIME:     1.39 SEC
 SORT2 READ    52159954. AND WROTE   178576926. INTEGRALS IN    993 RECORDS. CPU TIME:     0.60 SEC, REAL TIME:     0.76 SEC

 Node minimum:    59520934.  Node maximum:    59530350. integrals

 OPERATOR DM      FOR CENTER  0  COORDINATES:    0.000000    0.000000    0.000000


 **********************************************************************************************************************************
 DATASETS  * FILE   NREC   LENGTH (MB)   RECORD NAMES
              1      18        3.71       500      610      700      900      950      970     1000      129      960     1100   
                                          VAR    BASINP    GEOM    SYMINP    ZMAT    AOBASIS   BASIS     P2S    ABASIS      S 
                                         1400     1410     1200     1210     1080     1600     1650     1700   
                                           T        V       H0       H01     AOSYM     SMH    MOLCAS    OPER   

 PROGRAMS   *        TOTAL       INT
 CPU TIMES  *         3.73      3.65
 REAL TIME  *         4.39 SEC
 DISK USED  *       880.84 MB      
 GA USED    *         0.00 MB       (max)       0.00 MB       (current)
 **********************************************************************************************************************************

1PROGRAM * RHF-SCF (CLOSED SHELL)       Authors: W. Meyer, H.-J. Werner


 NUMBER OF ELECTRONS:      16+   16-
 CONVERGENCE THRESHOLDS:    1.00E-05 (Density)    1.00E-07 (Energy)
 MAX. NUMBER OF ITERATIONS:       60
 INTERPOLATION TYPE:            DIIS
 INTERPOLATION STEPS:              2 (START)      1 (STEP)
 LEVEL SHIFTS:                  0.00 (CLOSED)  0.00 (OPEN) 



 Orbital guess generated from atomic densities. Full valence occupancy:   17   5

 Molecular orbital dump at record        2100.2

 Initial alpha occupancy:  13   3
 Initial beta  occupancy:  13   3
 Wave function symmetry:    1

 ITERATION    DDIFF          GRAD             ENERGY        2-EL.EN.            DIPOLE MOMENTS         DIIS
    1      0.000D+00      0.000D+00      -263.66008592    352.082729    0.79962    0.84407    0.00000    0
    2      0.000D+00      0.643D-02      -263.72542790    347.532904    0.45543    0.49859    0.00000    1
    3      0.103D-01      0.437D-02      -263.76884753    350.091740    0.54281    0.57974    0.00000    2
    4      0.424D-02      0.410D-03      -263.76934292    349.878215    0.54485    0.58377    0.00000    3
    5      0.493D-03      0.119D-03      -263.76940100    349.881396    0.54121    0.57919    0.00000    4
    6      0.185D-03      0.482D-04      -263.76940817    349.895658    0.54164    0.58003    0.00000    5
    7      0.614D-04      0.118D-04      -263.76940891    349.887357    0.54134    0.57957    0.00000    6
    8      0.201D-04      0.262D-05      -263.76940895    349.888646    0.54135    0.57966    0.00000    7
    9      0.547D-05      0.960D-06      -263.76940896    349.888469    0.54133    0.57955    0.00000    0

 Final occupancy:  13   3

 !RHF STATE 1.1 Energy               -263.769408957384
 Nuclear energy                        78.29815030
 One-electron energy                 -517.01179386
 Two-electron energy                  174.94423460
 Virial quotient                       -1.00183220
 !RHF STATE 1.1 Dipole moment           0.54133092     0.57955220     0.00000000
 Dipole moment /Debye                   1.37583584     1.47297829     0.00000000

 Orbital energies:

         1.1          2.1          3.1          4.1          5.1          6.1          7.1          8.1          9.1         10.1
    -20.652365   -20.651851   -20.567890   -11.460912    -1.529734    -1.476624    -1.353062    -0.799992    -0.742217    -0.713783

        11.1         12.1         13.1         14.1         15.1
     -0.585251    -0.543428    -0.510550     0.029039     0.048724

         1.2          2.2          3.2          4.2          5.2
     -0.716751    -0.713800    -0.543451     0.047451     0.074160


 **********************************************************************************************************************************
 DATASETS  * FILE   NREC   LENGTH (MB)   RECORD NAMES
              1      18        3.72       500      610      700      900      950      970     1000      129      960     1100   
                                          VAR    BASINP    GEOM    SYMINP    ZMAT    AOBASIS   BASIS     P2S    ABASIS      S 
                                         1400     1410     1200     1210     1080     1600     1650     1700   
                                           T        V       H0       H01     AOSYM     SMH    MOLCAS    OPER   

              2       3        0.94       700     1000     2100   
                                         GEOM     BASIS     RHF  

 PROGRAMS   *        TOTAL        HF       INT
 CPU TIMES  *         6.41      2.68      3.65
 REAL TIME  *         7.20 SEC
 DISK USED  *       904.67 MB      
 SF USED    *         0.11 MB      
 GA USED    *         0.00 MB       (max)       0.00 MB       (current)
 **********************************************************************************************************************************


1PROGRAM * CCSD (Closed-shell coupled cluster)     Authors: C. Hampel, H.-J. Werner, 1991, M. Deegan, P.J. Knowles, 1992

                                  CCSD-F12 implementation by  H.-J. Werner, 2007

                   Density fitting integral evaluation by F.R. Manby, 2003,2007, G. Knizia, 2010

 Basis set CC-PVTZ/JKFIT generated.      Number of basis functions:   376 
 Basis set AUG-CC-PVTZ/MP2FIT generated. Number of basis functions:   516 

 Convergence thresholds:  THRVAR = 1.00D-08  THRDEN = 1.00D-06

 CCSD(T)     terms to be evaluated (factor= 1.000)


 Number of core orbitals:           4 (   4   0 )
 Number of closed-shell orbitals:  12 (   9   3 )
 Number of external orbitals:     214 ( 130  84 )

 Molecular orbitals read from record     2100.2  Type=RHF/CANONICAL (state 1.1)

 MP2-F12 correlation treatment (H.-J. Werner, 2006)
 --------------------------------------------------

 Using MP2-F12 with ansatz 3C(FIX)

 Using projected zeroth-order Hamiltonian (+Z)

 FOCKRIB=T FOCKRIC=T FOCKRIP=T CABSP=T CABSA=T CABSK=T CABSF=T GBC=F EBC=F DMAT=T NOFIK=T NOPAO=1 SOLVE=-1  USEPAO=0
 EXCH_A= T EXCH_B= F EXCH_C= F EXCH_P= F
 
 Geminal basis:    OPTFULL  GEM_TYPE=SLATER  BETA=1.0  NGEM=6

 Optimizing Gaussian exponents for each gem_beta

 Geminal optimization for beta= 1.0000
 Weight function:   m=0, omega= 1.4646

 Augmented Hessian optimization of geminal fit. Trust ratio= 0.40000
 Convergence reached after   2 iterations. Final gradient= 8.24D-16, Step= 4.32D-06, Delta= 1.28D-09
 
 Alpha:                 0.19532     0.81920     2.85917     9.50073    35.69989   197.79328
 Coeff:                 0.27070     0.30552     0.18297     0.10986     0.06810     0.04224
 

 Symmetry turned off. Reference energy:       -263.769408957384

 All pairs explicitly correlated. Number of r12-pairs:           78
 
 AO(A)-basis ORBITAL           loaded. Number of functions:     230
 RI(R)-basis CC-PVTZ/JKFIT     loaded. Number of functions:     376
 DF-basis CC-PVTZ/JKFIT        loaded. Number of functions:     376

 Screening thresholds:   THRAO=  1.00D-10  THRMO=  1.00D-09  THRPROD=  1.00D-09
                         THRSW=  1.00D-05  THROV=  1.00D-12  THRF12=   1.00D-08

 CPU time for Fock operators                      0.86 sec
 
 Construction of ABS:
 Smallest eigenvalue of S          2.57E-04  (threshold= 1.00E-08)
 Ratio eigmin/eigmax               1.83E-06  (threshold= 1.00E-09)
 Smallest eigenvalue of S kept     2.57E-04  (threshold= 2.57E-04, 0 functions deleted, 376 kept)
 
 Construction of CABS:
 Smallest eigenvalue of S          2.30E-08  (threshold= 1.00E-08)
 Ratio eigmin/eigmax               2.30E-08  (threshold= 1.00E-09)
 Smallest eigenvalue of S kept     2.30E-08  (threshold= 2.30E-08, 0 functions deleted, 376 kept)
 
 CPU time for CABS singles                        0.17 sec

 CABS-singles contribution of  -0.01592208 patched into reference energy.
 New reference energy        -263.78533104
 
 AO(A)-basis ORBITAL           loaded. Number of functions:     230
 RI(R)-basis CC-PVTZ/JKFIT     loaded. Number of functions:     376
 DF-basis AUG-CC-PVTZ/MP2FIT   loaded. Number of functions:     516

 Screening thresholds:   THRAO=  1.00D-10  THRMO=  1.00D-09  THRPROD=  1.00D-09
                         THRSW=  1.00D-05  THROV=  1.00D-12  THRF12=   1.00D-08

 CPU time for 3-index integral evaluation         1.51 sec
 CPU time for first  half transformation          0.17 sec (10327.1 MFLOP/sec)
 CPU time for second half transformation          0.02 sec ( 4523.3 MFLOP/sec)
 CPU time for sorting                             0.12 sec
 CPU time for fitting                             0.06 sec (23217.5 MFLOP/sec)
 CPU time for tilde quantities                    0.06 sec (30814.7 MFLOP/sec)
 CPU time for assembly                            0.75 sec (31358.2 MFLOP/sec)
 CPU time for tranop_f12                          0.90 sec (33340.9 MFLOP/sec)
 CPU time for f12 integrals (total)               5.56 sec
 F12-matrices built in  3 passes.
 F12-matrices built in  3 passes.
 F12-matrices built in  3 passes.
 F12-matrices built in  3 passes.
 FC-matrix built in  3 passes.
 CPU time for f12 matrices (total)                0.49 sec

 Diagonal F12 approximation with fixed coefficients:  TSING= 0.500,  TTRIP= 0.250 (scaled by -1/beta)

 DF-MP2-F12 energy corrections:
 ------------------------------
 Approx.                                    Singlet             Triplet             Total
 DF-MP2-F12/3*C(DX,FIX)                -0.097445659941     -0.016932782203     -0.114378442144
 DF-MP2-F12/3*C(FIX)                   -0.079860956509     -0.013395140379     -0.093256096888
 DF-MP2-F12/3C(FIX)                    -0.080222422426     -0.013418589374     -0.093641011801

 DF-MP2-F12 correlation energies:
 --------------------------------
 Approx.                                    Singlet             Triplet             Ecorr            Total Energy
 DF-MP2                                -0.537787506462     -0.343109426768     -0.880896933230   -264.666227974946
 DF-MP2-F12/3*C(DX,FIX)                -0.635233166402     -0.360042208972     -0.995275375374   -264.780606417091
 DF-MP2-F12/3*C(FIX)                   -0.617648462971     -0.356504567147     -0.974153030118   -264.759484071834
 DF-MP2-F12/3C(FIX)                    -0.618009928888     -0.356528016143     -0.974537945031   -264.759868986747

 SCS-DF-MP2 energies (F_SING= 1.20000  F_TRIP= 0.62222  F_PARALLEL= 0.33333):
 ----------------------------------------------------------------------------
 SCS-DF-MP2                            -0.858835317743   -264.644166359460
 SCS-DF-MP2-F12/3*C(DX,FIX)            -0.986306063043   -264.771637104760
 SCS-DF-MP2-F12/3*C(FIX)               -0.963003219568   -264.748334261284
 SCS-DF-MP2-F12/3C(FIX)                -0.963451569154   -264.748782610871

 Symmetry restored.
 Symmetry transformation completed.

 Number of N-1 electron functions:              12
 Number of N-2 electron functions:              78
 Number of singly external CSFs:              1422
 Number of doubly external CSFs:           1668984
 Total number of CSFs:                     1670407

 Pair and operator lists are different

 Length of J-op  integral file:             466.33 MB
 Length of K-op  integral file:             525.76 MB
 Length of 3-ext integral record:             0.00 MB

 Memory could be reduced to 76.19 Mwords without degradation in triples

 Integral transformation finished. Total CPU:   3.61 sec, npass=  1  Memory used:  26.50 MW

 Reference energy:                   -263.78533104

 Adding F12 terms to K(Cij), methodcc=6,  factor=1.0

 ITER.      SQ.NORM     CORR.ENERGY   TOTAL ENERGY   ENERGY CHANGE        DEN1      VAR(S)    VAR(P)  DIIS     TIME
   1      1.20220395    -0.86283565  -264.64816670     0.01807770     0.04672626  0.72D-02  0.56D-02  1  1    13.27
   2      1.21652566    -0.85860637  -264.64393742     0.00422928    -0.02016296  0.86D-04  0.59D-03  2  2    15.53
   3      1.22189160    -0.85870275  -264.64403379    -0.00009637    -0.00236640  0.13D-03  0.32D-04  3  3    17.80
   4      1.22469594    -0.85857478  -264.64390582     0.00012796    -0.00141237  0.76D-05  0.41D-05  4  4    20.08
   5      1.22572677    -0.85853709  -264.64386813     0.00003769    -0.00036667  0.56D-06  0.29D-06  5  5    22.38
   6      1.22588902    -0.85851023  -264.64384127     0.00002686    -0.00000806  0.40D-07  0.24D-07  6  6    24.68
   7      1.22591840    -0.85850780  -264.64383884     0.00000243    -0.00000622  0.26D-08  0.40D-08  6  4    26.99
   8      1.22591872    -0.85850731  -264.64383835     0.00000049     0.00000194  0.39D-09  0.27D-09  6  1    29.30
   9      1.22591933    -0.85850737  -264.64383842    -0.00000007     0.00000056  0.26D-10  0.21D-10  6  2    31.62

 Norm of t1 vector:      0.10599774      S-energy:    -0.00000001      T1 diagnostic:  0.01529946
                                                                       D1 diagnostic:  0.04495116

 Adding energy correction from Wij-K(Fij), methodcc=6  factor=1.0
 
  CCSD correlation energy              -0.858507374528
  MP2-F12 correction (uncoupled)       -0.092482723011
  C*T doubles correction               -0.001476378184
  f12b correction                       0.015406955531


 Total CPU time for triples:     74.19 sec


 RESULTS
 =======

  Reference energy                   -263.769408957384
  F12 singles correction               -0.015922084332

 F12 singles corrections added to reference energy

  New reference energy               -263.785331041716

  F12a singlet correction              -0.080422074855
  F12a triplet correction              -0.013537026340
  F12a total correction                -0.093959101194

 F12a corrections for ansatz F12/3C(FIX) added to CCSD energy
 
  CCSD-F12a singlet pair energy        -0.641952876997
  CCSD-F12a triplet pair energy        -0.310513588919
  CCSD-F12a correlation energy         -0.952466475723

  Triples (T) contribution             -0.037650569124
  Total correlation energy             -0.990117044846

  CCSD-F12a total energy             -264.737797517439
  CCSD[T]-F12a energy                -264.777993413933
  CCSD-T-F12a energy                 -264.774509782877
 !CCSD(T)-F12a total energy          -264.775448086563

 F12b corrections for ansatz F12/3C(FIX) added to CCSD(T)-F12a energy

  CCSD-F12b singlet pair energy        -0.627769138761
  CCSD-F12b triplet pair energy        -0.309290371623
  CCSD-F12b correlation energy         -0.937059520191

  Triples (T) contribution             -0.037650569124
  Total correlation energy             -0.974710089315

  CCSD-F12b total energy             -264.722390561907
  CCSD[T]-F12b energy                -264.762586458402
  CCSD-T-F12b energy                 -264.759102827346
 !CCSD(T)-F12b total energy          -264.760041131031

 Timing summary (sec):

 STEP                 CPU(USER)    SYS     CPU(TOT)    WALL
 Transformation          3.64      0.47      4.11      4.11
 CCSD iterations        20.53      1.37     21.90     21.96
 Triples                74.19      2.13     76.32     76.33
 MP2-F12                 7.46      1.12      8.58      8.58
 F12b energy             1.39      0.02      1.41      1.41

 Program statistics:

 Available memory in ccsd:                99998934
 Min. memory needed in ccsd:               4419579
 Max. memory used in ccsd:                 5922321
 Max. memory used in cckext:               6231049 (10 integral passes)



 **********************************************************************************************************************************
 DATASETS  * FILE   NREC   LENGTH (MB)   RECORD NAMES
              1      20      268.24       500      610      700      900      950      970     1000      129      960     1100   
                                          VAR    BASINP    GEOM    SYMINP    ZMAT    AOBASIS   BASIS     P2S    ABASIS      S 
                                         1400     1410     1200     1210     1080     1600     1650     1700      960(1)  1380   
                                           T        V       H0       H01     AOSYM     SMH    MOLCAS    OPER    ABASIS    JKOP   

              2       5        1.51       700     1000     2100     7360     7350   
                                         GEOM     BASIS     RHF    F12ABS    EF12   

 PROGRAMS   *        TOTAL   CCSD(T)        HF       INT
 CPU TIMES  *       113.63    107.22      2.68      3.65
 REAL TIME  *       119.87 SEC
 DISK USED  *         1.34 GB      
 SF USED    *         1.52 GB      
 GA USED    *         2.40 MB       (max)       0.00 MB       (current)
 **********************************************************************************************************************************

     CCSD(T)-F12        HF-SCF  
   -264.76004113   -263.76940896
 **********************************************************************************************************************************
 Variable memory released
