
 Primary working directories    : /scratch/kee
 Secondary working directories  : /scratch/kee
 Wavefunction directory         : /home/kee/wfu/
 Main file repository           : /scratch/kee/

 ARCHNAME  : Linux/x86_64
 FC        : /opt/intel/composer_xe_2015.0.090/bin/intel64/ifort
 FCVERSION : 15.0.0
 BLASLIB   : -L/opt/intel/mkl/lib/intel64 -lmkl_intel_ilp64 -lmkl_sequential -lmkl_core
 id        : emory

 Nodes     nprocs
 node24       3
 Number of processes for MPI-2 version of Molpro:   nprocs(total)=    4   nprocs(compute)=    3   nprocs(helper)=    1
 ga_uses_ma=false, calling ma_init with nominal heap.
 GA-space will be limited to   8.0 MW (determined by -G option)

 Using customized tuning parameters: mindgm=7; mindgv=32; mindgc=1; mindgr=1; noblas=0; mincuda=1000; minvec=7
 default implementation of scratch files=sf  

 ***,co2h2o
 memory,100,m
 basis avtz
 geomtype = xyz
 geometry = {
 6
    -264.76489694
 O     0.82869278    1.16169550    0.00000000
 O     0.82658011   -1.16233555    0.00000000
 O   -11.64123385    0.00458228    0.00000000
 H   -12.22486686    0.76517693    0.00000000
 H   -12.22459875   -0.75621964    0.00000000
 C     0.80876519   -0.00029961    0.00000000
 }
 hf
 ccsd(t)-f12
 ---

 Variables initialized (665), CPU time= 0.01 sec
 Commands  initialized (462), CPU time= 0.00 sec, 486 directives.
 Default parameters read. Elapsed time= 0.03 sec

 Checking input...
 Passed
1


                                         ***  PROGRAM SYSTEM MOLPRO  ***
                         Copyright, University College Cardiff Consultants Limited, 2008

                                    Version 2010.1 linked 9 Dec 2014 15:06:28 


 **********************************************************************************************************************************
 LABEL *   co2h2o                                                                        
 Linux-2.6.32-504.el6.x86_64/node24(x86_64) 64 bit mpp version                           DATE: 11-Dec-16          TIME: 23:21:33  
 **********************************************************************************************************************************

 Patch level:      19
 **********************************************************************************************************************************

 Variable memory set to  100000000 words,  buffer space   230000 words

 SETTING BASIS          =    AVTZ
 SETTING GEOMTYPE       =    XYZ

Geometry recognized as XYZ



 Recomputing integrals since basis changed


 Using spherical harmonics

 Library entry O      S aug-cc-pVTZ          selected for orbital group  1
 Library entry O      P aug-cc-pVTZ          selected for orbital group  1
 Library entry O      D aug-cc-pVTZ          selected for orbital group  1
 Library entry O      F aug-cc-pVTZ          selected for orbital group  1
 Library entry H      S aug-cc-pVTZ          selected for orbital group  2
 Library entry H      P aug-cc-pVTZ          selected for orbital group  2
 Library entry H      D aug-cc-pVTZ          selected for orbital group  2
 Library entry C      S aug-cc-pVTZ          selected for orbital group  3
 Library entry C      P aug-cc-pVTZ          selected for orbital group  3
 Library entry C      D aug-cc-pVTZ          selected for orbital group  3
 Library entry C      F aug-cc-pVTZ          selected for orbital group  3

1PROGRAM * SEWARD (Integral evaluation for generally contracted gaussian basis sets)     Author: Roland Lindh, 1990

 Geometry written to block  1 of record 700


 Point group  Cs  



 ATOMIC COORDINATES

 NR  ATOM    CHARGE       X              Y              Z

   1  O       8.00    1.566002401    2.195286343    0.000000000
   2  O       8.00    1.562010034   -2.196495862    0.000000000
   3  O       8.00  -21.998743808    0.008659254    0.000000000
   4  H       1.00  -23.101650358    1.445974840    0.000000000
   5  H       1.00  -23.101143704   -1.429048015    0.000000000
   6  C       6.00    1.528344714   -0.000566181    0.000000000

 Bond lengths in Bohr (Angstrom)

 1-6  2.196175405  2-6  2.196187724  3-4  1.811706088  3-5  1.811708509
     (1.162165971)     (1.162172490)     (0.958713571)     (0.958714852)

 Bond angles

  1-6-2  178.13918425   4-3-5  105.01947441

 NUCLEAR CHARGE:                   32
 NUMBER OF PRIMITIVE AOS:         322
 NUMBER OF SYMMETRY AOS:          282
 NUMBER OF CONTRACTIONS:          230   ( 152A'  +  78A"  )
 NUMBER OF CORE ORBITALS:           4   (   4A'  +   0A"  )
 NUMBER OF VALENCE ORBITALS:       18   (  14A'  +   4A"  )


 NUCLEAR REPULSION ENERGY   76.68975703


 Eigenvalues of metric

         1 0.349E-03 0.384E-03 0.393E-03 0.420E-03 0.902E-03 0.922E-03 0.167E-02 0.175E-02
         2 0.318E-02 0.348E-02 0.595E-02 0.124E-01 0.136E-01 0.296E-01 0.297E-01 0.319E-01


 Contracted 2-electron integrals neglected if value below      1.0D-11
 AO integral compression algorithm  1   Integral accuracy      1.0D-11

     243.794 MB (compressed) written to integral file ( 32.1%)

     Node minimum: 69.468 MB, node maximum: 89.915 MB


 NUMBER OF SORTED TWO-ELECTRON INTEGRALS:   59950380.     BUFFER LENGTH:  32768
 NUMBER OF SEGMENTS:   4  SEGMENT LENGTH:   15995235      RECORD LENGTH: 524288

 Memory used in sort:      16.55 MW

 SORT1 READ    94856560. AND WROTE    16653297. INTEGRALS IN     49 RECORDS. CPU TIME:     0.99 SEC, REAL TIME:     1.14 SEC
 SORT2 READ    49806117. AND WROTE   179836431. INTEGRALS IN   1029 RECORDS. CPU TIME:     0.50 SEC, REAL TIME:     0.65 SEC

 Node minimum:    59940574.  Node maximum:    59950380. integrals

 OPERATOR DM      FOR CENTER  0  COORDINATES:    0.000000    0.000000    0.000000


 **********************************************************************************************************************************
 DATASETS  * FILE   NREC   LENGTH (MB)   RECORD NAMES
              1      18        3.74       500      610      700      900      950      970     1000      129      960     1100   
                                          VAR    BASINP    GEOM    SYMINP    ZMAT    AOBASIS   BASIS     P2S    ABASIS      S 
                                         1400     1410     1200     1210     1080     1600     1650     1700   
                                           T        V       H0       H01     AOSYM     SMH    MOLCAS    OPER   

 PROGRAMS   *        TOTAL       INT
 CPU TIMES  *         3.27      3.19
 REAL TIME  *         3.64 SEC
 DISK USED  *       845.97 MB      
 GA USED    *         0.00 MB       (max)       0.00 MB       (current)
 **********************************************************************************************************************************

1PROGRAM * RHF-SCF (CLOSED SHELL)       Authors: W. Meyer, H.-J. Werner


 NUMBER OF ELECTRONS:      16+   16-
 CONVERGENCE THRESHOLDS:    1.00E-05 (Density)    1.00E-07 (Energy)
 MAX. NUMBER OF ITERATIONS:       60
 INTERPOLATION TYPE:            DIIS
 INTERPOLATION STEPS:              2 (START)      1 (STEP)
 LEVEL SHIFTS:                  0.00 (CLOSED)  0.00 (OPEN) 



 Orbital guess generated from atomic densities. Full valence occupancy:   18   4

 Molecular orbital dump at record        2100.2

 Initial alpha occupancy:  13   3
 Initial beta  occupancy:  13   3
 Wave function symmetry:    1

 ITERATION    DDIFF          GRAD             ENERGY        2-EL.EN.            DIPOLE MOMENTS         DIIS
    1      0.000D+00      0.000D+00      -263.66025126    348.875560   -1.18419   -0.00012    0.00000    0
    2      0.000D+00      0.630D-02      -263.72552761    344.320897   -0.68047   -0.00010    0.00000    1
    3      0.101D-01      0.428D-02      -263.76889854    346.879012   -0.80644   -0.00009    0.00000    2
    4      0.416D-02      0.402D-03      -263.76939368    346.665980   -0.80990   -0.00010    0.00000    3
    5      0.485D-03      0.117D-03      -263.76945167    346.668951   -0.80441   -0.00009    0.00000    4
    6      0.181D-03      0.471D-04      -263.76945882    346.683247   -0.80508   -0.00010    0.00000    5
    7      0.603D-04      0.116D-04      -263.76945955    346.674949   -0.80463   -0.00009    0.00000    6
    8      0.197D-04      0.254D-05      -263.76945960    346.676245   -0.80464   -0.00010    0.00000    7
    9      0.541D-05      0.852D-06      -263.76945960    346.676057   -0.80461   -0.00009    0.00000    0

 Final occupancy:  13   3

 !RHF STATE 1.1 Energy               -263.769459603542
 Nuclear energy                        76.68975703
 One-electron energy                 -513.79724522
 Two-electron energy                  173.33802858
 Virial quotient                       -1.00182804
 !RHF STATE 1.1 Dipole moment          -0.80461129    -0.00009466     0.00000000
 Dipole moment /Debye                  -2.04498397    -0.00024058     0.00000000

 Orbital energies:

         1.1          2.1          3.1          4.1          5.1          6.1          7.1          8.1          9.1         10.1
    -20.652104   -20.652059   -20.567420   -11.460862    -1.529767    -1.476664    -1.352665    -0.799976    -0.742222    -0.718202

        11.1         12.1         13.1         14.1         15.1
     -0.713812    -0.583870    -0.543420     0.029295     0.047515

         1.2          2.2          3.2          4.2          5.2
     -0.713827    -0.543447    -0.510278     0.074187     0.158293


 **********************************************************************************************************************************
 DATASETS  * FILE   NREC   LENGTH (MB)   RECORD NAMES
              1      18        3.76       500      610      700      900      950      970     1000      129      960     1100   
                                          VAR    BASINP    GEOM    SYMINP    ZMAT    AOBASIS   BASIS     P2S    ABASIS      S 
                                         1400     1410     1200     1210     1080     1600     1650     1700   
                                           T        V       H0       H01     AOSYM     SMH    MOLCAS    OPER   

              2       3        0.96       700     1000     2100   
                                         GEOM     BASIS     RHF  

 PROGRAMS   *        TOTAL        HF       INT
 CPU TIMES  *         5.72      2.45      3.19
 REAL TIME  *         6.22 SEC
 DISK USED  *       870.35 MB      
 SF USED    *         0.12 MB      
 GA USED    *         0.00 MB       (max)       0.00 MB       (current)
 **********************************************************************************************************************************


1PROGRAM * CCSD (Closed-shell coupled cluster)     Authors: C. Hampel, H.-J. Werner, 1991, M. Deegan, P.J. Knowles, 1992

                                  CCSD-F12 implementation by  H.-J. Werner, 2007

                   Density fitting integral evaluation by F.R. Manby, 2003,2007, G. Knizia, 2010

 Basis set CC-PVTZ/JKFIT generated.      Number of basis functions:   376 
 Basis set AUG-CC-PVTZ/MP2FIT generated. Number of basis functions:   516 

 Convergence thresholds:  THRVAR = 1.00D-08  THRDEN = 1.00D-06

 CCSD(T)     terms to be evaluated (factor= 1.000)


 Number of core orbitals:           4 (   4   0 )
 Number of closed-shell orbitals:  12 (   9   3 )
 Number of external orbitals:     214 ( 139  75 )

 Molecular orbitals read from record     2100.2  Type=RHF/CANONICAL (state 1.1)

 MP2-F12 correlation treatment (H.-J. Werner, 2006)
 --------------------------------------------------

 Using MP2-F12 with ansatz 3C(FIX)

 Using projected zeroth-order Hamiltonian (+Z)

 FOCKRIB=T FOCKRIC=T FOCKRIP=T CABSP=T CABSA=T CABSK=T CABSF=T GBC=F EBC=F DMAT=T NOFIK=T NOPAO=1 SOLVE=-1  USEPAO=0
 EXCH_A= T EXCH_B= F EXCH_C= F EXCH_P= F
 
 Geminal basis:    OPTFULL  GEM_TYPE=SLATER  BETA=1.0  NGEM=6

 Optimizing Gaussian exponents for each gem_beta

 Geminal optimization for beta= 1.0000
 Weight function:   m=0, omega= 1.4646

 Augmented Hessian optimization of geminal fit. Trust ratio= 0.40000
 Convergence reached after   2 iterations. Final gradient= 8.24D-16, Step= 4.32D-06, Delta= 1.28D-09
 
 Alpha:                 0.19532     0.81920     2.85917     9.50073    35.69989   197.79328
 Coeff:                 0.27070     0.30552     0.18297     0.10986     0.06810     0.04224
 

 Symmetry turned off. Reference energy:       -263.769459603542

 All pairs explicitly correlated. Number of r12-pairs:           78
 
 AO(A)-basis ORBITAL           loaded. Number of functions:     230
 RI(R)-basis CC-PVTZ/JKFIT     loaded. Number of functions:     376
 DF-basis CC-PVTZ/JKFIT        loaded. Number of functions:     376

 Screening thresholds:   THRAO=  1.00D-10  THRMO=  1.00D-09  THRPROD=  1.00D-09
                         THRSW=  1.00D-05  THROV=  1.00D-12  THRF12=   1.00D-08

 CPU time for Fock operators                      0.74 sec
 
 Construction of ABS:
 Smallest eigenvalue of S          2.57E-04  (threshold= 1.00E-08)
 Ratio eigmin/eigmax               1.83E-06  (threshold= 1.00E-09)
 Smallest eigenvalue of S kept     2.57E-04  (threshold= 2.57E-04, 0 functions deleted, 376 kept)
 
 Construction of CABS:
 Smallest eigenvalue of S          2.30E-08  (threshold= 1.00E-08)
 Ratio eigmin/eigmax               2.30E-08  (threshold= 1.00E-09)
 Smallest eigenvalue of S kept     2.30E-08  (threshold= 2.30E-08, 0 functions deleted, 376 kept)
 
 CPU time for CABS singles                        0.14 sec

 CABS-singles contribution of  -0.01592478 patched into reference energy.
 New reference energy        -263.78538438
 
 AO(A)-basis ORBITAL           loaded. Number of functions:     230
 RI(R)-basis CC-PVTZ/JKFIT     loaded. Number of functions:     376
 DF-basis AUG-CC-PVTZ/MP2FIT   loaded. Number of functions:     516

 Screening thresholds:   THRAO=  1.00D-10  THRMO=  1.00D-09  THRPROD=  1.00D-09
                         THRSW=  1.00D-05  THROV=  1.00D-12  THRF12=   1.00D-08

 CPU time for 3-index integral evaluation         1.17 sec
 CPU time for first  half transformation          0.23 sec ( 6406.4 MFLOP/sec)
 CPU time for sorting                             0.08 sec
 CPU time for fitting                             0.04 sec (34826.3 MFLOP/sec)
 CPU time for tilde quantities                    0.04 sec (46222.0 MFLOP/sec)
 CPU time for assembly                            0.69 sec (34562.0 MFLOP/sec)
 CPU time for tranop_f12                          0.80 sec (38452.4 MFLOP/sec)
 CPU time for f12 integrals (total)               4.84 sec
 F12-matrices built in  3 passes.
 F12-matrices built in  3 passes.
 F12-matrices built in  3 passes.
 F12-matrices built in  3 passes.
 FC-matrix built in  3 passes.
 CPU time for f12 matrices (total)                0.42 sec

 Diagonal F12 approximation with fixed coefficients:  TSING= 0.500,  TTRIP= 0.250 (scaled by -1/beta)

 DF-MP2-F12 energy corrections:
 ------------------------------
 Approx.                                    Singlet             Triplet             Total
 DF-MP2-F12/3*C(DX,FIX)                -0.097454587423     -0.016934568019     -0.114389155442
 DF-MP2-F12/3*C(FIX)                   -0.079870025483     -0.013396597653     -0.093266623135
 DF-MP2-F12/3C(FIX)                    -0.080230826772     -0.013419718457     -0.093650545229

 DF-MP2-F12 correlation energies:
 --------------------------------
 Approx.                                    Singlet             Triplet             Ecorr            Total Energy
 DF-MP2                                -0.537726829604     -0.343069919690     -0.880796749294   -264.666181131010
 DF-MP2-F12/3*C(DX,FIX)                -0.635181417027     -0.360004487709     -0.995185904736   -264.780570286453
 DF-MP2-F12/3*C(FIX)                   -0.617596855087     -0.356466517342     -0.974063372429   -264.759447754146
 DF-MP2-F12/3C(FIX)                    -0.617957656376     -0.356489638146     -0.974447294522   -264.759831676239

 SCS-DF-MP2 energies (F_SING= 1.20000  F_TRIP= 0.62222  F_PARALLEL= 0.33333):
 ----------------------------------------------------------------------------
 SCS-DF-MP2                            -0.858737923332   -264.644122305048
 SCS-DF-MP2-F12/3*C(DX,FIX)            -0.986220492785   -264.771604874502
 SCS-DF-MP2-F12/3*C(FIX)               -0.962917614672   -264.748301996389
 SCS-DF-MP2-F12/3C(FIX)                -0.963364962498   -264.748749344215

 Symmetry restored.
 Symmetry transformation completed.

 Number of N-1 electron functions:              12
 Number of N-2 electron functions:              78
 Number of singly external CSFs:              1476
 Number of doubly external CSFs:           1686804
 Total number of CSFs:                     1688281

 Pair and operator lists are different

 Length of J-op  integral file:             466.42 MB
 Length of K-op  integral file:             526.62 MB
 Length of 3-ext integral record:             0.00 MB

 Memory could be reduced to 76.61 Mwords without degradation in triples

 Integral transformation finished. Total CPU:   3.23 sec, npass=  1  Memory used:  24.61 MW

 Reference energy:                   -263.78538438

 Adding F12 terms to K(Cij), methodcc=6,  factor=1.0

 ITER.      SQ.NORM     CORR.ENERGY   TOTAL ENERGY   ENERGY CHANGE        DEN1      VAR(S)    VAR(P)  DIIS     TIME
   1      1.20214923    -0.86274832  -264.64813270     0.01806491     0.04669798  0.72D-02  0.56D-02  1  1    11.68
   2      1.21646202    -0.85852082  -264.64390520     0.00422750    -0.02015299  0.86D-04  0.59D-03  2  2    13.74
   3      1.22182214    -0.85861682  -264.64400120    -0.00009600    -0.00236382  0.13D-03  0.32D-04  3  3    15.79
   4      1.22462375    -0.85848895  -264.64387333     0.00012787    -0.00141122  0.76D-05  0.41D-05  4  4    17.85
   5      1.22565374    -0.85845124  -264.64383562     0.00003771    -0.00036640  0.56D-06  0.29D-06  5  5    19.91
   6      1.22581593    -0.85842438  -264.64380876     0.00002686    -0.00000805  0.40D-07  0.24D-07  6  6    21.98
   7      1.22584528    -0.85842196  -264.64380634     0.00000242    -0.00000622  0.25D-08  0.40D-08  6  4    24.06
   8      1.22584558    -0.85842147  -264.64380585     0.00000049     0.00000195  0.39D-09  0.27D-09  6  1    26.14
   9      1.22584619    -0.85842153  -264.64380592    -0.00000007     0.00000056  0.26D-10  0.21D-10  6  2    28.40

 Norm of t1 vector:      0.10595760      S-energy:    -0.00000002      T1 diagnostic:  0.01529366
                                                                       D1 diagnostic:  0.04494352

 Adding energy correction from Wij-K(Fij), methodcc=6  factor=1.0
 
  CCSD correlation energy              -0.858421533474
  MP2-F12 correction (uncoupled)       -0.092493548290
  C*T doubles correction               -0.001475749101
  f12b correction                       0.015407306463


 Total CPU time for triples:     72.65 sec


 RESULTS
 =======

  Reference energy                   -263.769459603543
  F12 singles correction               -0.015924778174

 F12 singles corrections added to reference energy

  New reference energy               -263.785384381717

  F12a singlet correction              -0.080430834240
  F12a triplet correction              -0.013538463151
  F12a total correction                -0.093969297391

 F12a corrections for ansatz F12/3C(FIX) added to CCSD energy
 
  CCSD-F12a singlet pair energy        -0.641894111114
  CCSD-F12a triplet pair energy        -0.310496695270
  CCSD-F12a correlation energy         -0.952390830865

  Triples (T) contribution             -0.037638892525
  Total correlation energy             -0.990029723391

  CCSD-F12a total energy             -264.737775212582
  CCSD[T]-F12a energy                -264.777957837242
  CCSD-T-F12a energy                 -264.774476476847
 !CCSD(T)-F12a total energy          -264.775414105108

 F12b corrections for ansatz F12/3C(FIX) added to CCSD(T)-F12a energy

  CCSD-F12b singlet pair energy        -0.627710160133
  CCSD-F12b triplet pair energy        -0.309273339788
  CCSD-F12b correlation energy         -0.936983524403

  Triples (T) contribution             -0.037638892525
  Total correlation energy             -0.974622416928

  CCSD-F12b total energy             -264.722367906120
  CCSD[T]-F12b energy                -264.762550530779
  CCSD-T-F12b energy                 -264.759069170384
 !CCSD(T)-F12b total energy          -264.760006798645

 Timing summary (sec):

 STEP                 CPU(USER)    SYS     CPU(TOT)    WALL
 Transformation          3.26      0.48      3.74      3.74
 CCSD iterations        18.66      1.31     19.97     20.29
 Triples                72.65      1.97     74.62     74.59
 MP2-F12                 6.49      0.96      7.45      7.45
 F12b energy             1.43      0.08      1.51      1.52

 Program statistics:

 Available memory in ccsd:                99998934
 Min. memory needed in ccsd:               4458306
 Max. memory used in ccsd:                 5958390
 Max. memory used in cckext:               6352469 (10 integral passes)



 **********************************************************************************************************************************
 DATASETS  * FILE   NREC   LENGTH (MB)   RECORD NAMES
              1      20      269.66       500      610      700      900      950      970     1000      129      960     1100   
                                          VAR    BASINP    GEOM    SYMINP    ZMAT    AOBASIS   BASIS     P2S    ABASIS      S 
                                         1400     1410     1200     1210     1080     1600     1650     1700      960(1)  1380   
                                           T        V       H0       H01     AOSYM     SMH    MOLCAS    OPER    ABASIS    JKOP   

              2       5        1.55       700     1000     2100     7360     7350   
                                         GEOM     BASIS     RHF    F12ABS    EF12   

 PROGRAMS   *        TOTAL   CCSD(T)        HF       INT
 CPU TIMES  *       108.45    102.73      2.45      3.19
 REAL TIME  *       114.08 SEC
 DISK USED  *         1.31 GB      
 SF USED    *         1.53 GB      
 GA USED    *         2.40 MB       (max)       0.00 MB       (current)
 **********************************************************************************************************************************

     CCSD(T)-F12        HF-SCF  
   -264.76000680   -263.76945960
 **********************************************************************************************************************************
 Variable memory released
