
 Primary working directories    : /scratch/kee
 Secondary working directories  : /scratch/kee
 Wavefunction directory         : /home/kee/wfu/
 Main file repository           : /scratch/kee/

 ARCHNAME  : Linux/x86_64
 FC        : /opt/intel/composer_xe_2015.0.090/bin/intel64/ifort
 FCVERSION : 15.0.0
 BLASLIB   : -L/opt/intel/mkl/lib/intel64 -lmkl_intel_ilp64 -lmkl_sequential -lmkl_core
 id        : emory

 Nodes     nprocs
 node24       3
 Number of processes for MPI-2 version of Molpro:   nprocs(total)=    4   nprocs(compute)=    3   nprocs(helper)=    1
 ga_uses_ma=false, calling ma_init with nominal heap.
 GA-space will be limited to   8.0 MW (determined by -G option)

 Using customized tuning parameters: mindgm=7; mindgv=32; mindgc=1; mindgr=1; noblas=0; mincuda=1000; minvec=7
 default implementation of scratch files=sf  

 ***,co2h2o
 memory,100,m
 basis avtz
 geomtype = xyz
 geometry = {
 6
       0.00000000
 O     0.00351000    1.16210700    0.00000000
 O     0.00351000   -1.16210700    0.00000000
 O     8.41968000    0.00000000    0.00000000
 H     9.00589800    0.00000000    0.75853100
 H     9.00589800    0.00000000   -0.75853100
 C     0.01968000    0.00000000    0.00000000
 }
 hf
 ccsd(t)-f12
 ---

 Variables initialized (665), CPU time= 0.01 sec
 Commands  initialized (462), CPU time= 0.00 sec, 486 directives.
 Default parameters read. Elapsed time= 0.05 sec

 Checking input...
 Passed
1


                                         ***  PROGRAM SYSTEM MOLPRO  ***
                         Copyright, University College Cardiff Consultants Limited, 2008

                                    Version 2010.1 linked 9 Dec 2014 15:06:28 


 **********************************************************************************************************************************
 LABEL *   co2h2o                                                                        
 Linux-2.6.32-504.el6.x86_64/node24(x86_64) 64 bit mpp version                           DATE: 12-Dec-16          TIME: 14:18:55  
 **********************************************************************************************************************************

 Patch level:      19
 **********************************************************************************************************************************

 Variable memory set to  100000000 words,  buffer space   230000 words

 SETTING BASIS          =    AVTZ
 SETTING GEOMTYPE       =    XYZ

Geometry recognized as XYZ



 Recomputing integrals since basis changed


 Using spherical harmonics

 Library entry O      S aug-cc-pVTZ          selected for orbital group  1
 Library entry O      P aug-cc-pVTZ          selected for orbital group  1
 Library entry O      D aug-cc-pVTZ          selected for orbital group  1
 Library entry O      F aug-cc-pVTZ          selected for orbital group  1
 Library entry H      S aug-cc-pVTZ          selected for orbital group  2
 Library entry H      P aug-cc-pVTZ          selected for orbital group  2
 Library entry H      D aug-cc-pVTZ          selected for orbital group  2
 Library entry C      S aug-cc-pVTZ          selected for orbital group  3
 Library entry C      P aug-cc-pVTZ          selected for orbital group  3
 Library entry C      D aug-cc-pVTZ          selected for orbital group  3
 Library entry C      F aug-cc-pVTZ          selected for orbital group  3

1PROGRAM * SEWARD (Integral evaluation for generally contracted gaussian basis sets)     Author: Roland Lindh, 1990

 Geometry written to block  1 of record 700


 Point group  C2v 



 ATOMIC COORDINATES

 NR  ATOM    CHARGE       X              Y              Z

   1  O       8.00    0.006632939    2.196063965    0.000000000
   2  O       8.00    0.006632939   -2.196063965    0.000000000
   3  O       8.00   15.910889314    0.000000000    0.000000000
   4  H       1.00   17.018680788    0.000000000    1.433415852
   5  H       1.00   17.018680788    0.000000000   -1.433415852
   6  C       6.00    0.037189810    0.000000000    0.000000000

 Bond lengths in Bohr (Angstrom)

 1-6  2.196276545  2-6  2.196276545  3-4  1.811596797  3-5  1.811596797
     (1.162219492)     (1.162219492)     (0.958655737)     (0.958655737)

 Bond angles

  1-6-2  178.40563223   4-3-5  104.60391356

 NUCLEAR CHARGE:                   32
 NUMBER OF PRIMITIVE AOS:         322
 NUMBER OF SYMMETRY AOS:          282
 NUMBER OF CONTRACTIONS:          230   (  84A1  +  59B1  +  54B2  +  33A2  )
 NUMBER OF CORE ORBITALS:           4   (   3A1  +   1B1  +   0B2  +   0A2  )
 NUMBER OF VALENCE ORBITALS:       18   (   8A1  +   5B1  +   4B2  +   1A2  )


 NUCLEAR REPULSION ENERGY   81.02226583


 Eigenvalues of metric

         1 0.375E-03 0.420E-03 0.902E-03 0.183E-02 0.317E-02 0.321E-02 0.405E-02 0.534E-02
         2 0.349E-03 0.922E-03 0.175E-02 0.348E-02 0.596E-02 0.744E-02 0.205E-01 0.216E-01
         3 0.394E-03 0.167E-02 0.318E-02 0.509E-02 0.622E-02 0.100E-01 0.136E-01 0.156E-01
         4 0.348E-02 0.124E-01 0.296E-01 0.363E-01 0.561E-01 0.679E-01 0.110E+00 0.139E+00


 Contracted 2-electron integrals neglected if value below      1.0D-11
 AO integral compression algorithm  1   Integral accuracy      1.0D-11

     163.840 MB (compressed) written to integral file ( 24.2%)

     Node minimum: 50.594 MB, node maximum: 56.623 MB


 NUMBER OF SORTED TWO-ELECTRON INTEGRALS:   29979201.     BUFFER LENGTH:  32768
 NUMBER OF SEGMENTS:   2  SEGMENT LENGTH:   15996954      RECORD LENGTH: 524288

 Memory used in sort:      16.55 MW

 SORT1 READ    84646796. AND WROTE     9948104. INTEGRALS IN     29 RECORDS. CPU TIME:     1.52 SEC, REAL TIME:     1.68 SEC
 SORT2 READ    29895479. AND WROTE    89930217. INTEGRALS IN    579 RECORDS. CPU TIME:     0.42 SEC, REAL TIME:     0.54 SEC

 Node minimum:    29974277.  Node maximum:    29979201. integrals

 OPERATOR DM      FOR CENTER  0  COORDINATES:    0.000000    0.000000    0.000000


 **********************************************************************************************************************************
 DATASETS  * FILE   NREC   LENGTH (MB)   RECORD NAMES
              1      18        3.23       500      610      700      900      950      970     1000      129      960     1100   
                                          VAR    BASINP    GEOM    SYMINP    ZMAT    AOBASIS   BASIS     P2S    ABASIS      S 
                                         1400     1410     1200     1210     1080     1600     1650     1700   
                                           T        V       H0       H01     AOSYM     SMH    MOLCAS    OPER   

 PROGRAMS   *        TOTAL       INT
 CPU TIMES  *         3.47      3.36
 REAL TIME  *         3.88 SEC
 DISK USED  *       518.47 MB      
 GA USED    *         0.00 MB       (max)       0.00 MB       (current)
 **********************************************************************************************************************************

1PROGRAM * RHF-SCF (CLOSED SHELL)       Authors: W. Meyer, H.-J. Werner


 NUMBER OF ELECTRONS:      16+   16-
 CONVERGENCE THRESHOLDS:    1.00E-05 (Density)    1.00E-07 (Energy)
 MAX. NUMBER OF ITERATIONS:       60
 INTERPOLATION TYPE:            DIIS
 INTERPOLATION STEPS:              2 (START)      1 (STEP)
 LEVEL SHIFTS:                  0.00 (CLOSED)  0.00 (OPEN) 



 Orbital guess generated from atomic densities. Full valence occupancy:   11   6   4   1

 Molecular orbital dump at record        2100.2

 Initial alpha occupancy:   8   5   2   1
 Initial beta  occupancy:   8   5   2   1
 Wave function symmetry:    1

 ITERATION    DDIFF          GRAD             ENERGY        2-EL.EN.            DIPOLE MOMENTS         DIIS
    1      0.000D+00      0.000D+00      -263.66032938    357.625714    1.18060    0.00000    0.00000    0
    2      0.000D+00      0.888D-02      -263.72562194    353.040374    0.68627    0.00000    0.00000    1
    3      0.143D-01      0.603D-02      -263.76895511    355.604439    0.80884    0.00000    0.00000    2
    4      0.588D-02      0.568D-03      -263.76945030    355.392024    0.81239    0.00000    0.00000    3
    5      0.694D-03      0.165D-03      -263.76950834    355.394427    0.80694    0.00000    0.00000    4
    6      0.258D-03      0.666D-04      -263.76951551    355.408844    0.80765    0.00000    0.00000    5
    7      0.855D-04      0.163D-04      -263.76951624    355.400506    0.80720    0.00000    0.00000    6
    8      0.280D-04      0.359D-05      -263.76951629    355.401807    0.80721    0.00000    0.00000    7
    9      0.768D-05      0.121D-05      -263.76951629    355.401615    0.80718    0.00000    0.00000    0

 Final occupancy:   8   5   2   1

 !RHF STATE 1.1 Energy               -263.769516291526
 Nuclear energy                        81.02226583
 One-electron energy                 -522.49258951
 Two-electron energy                  177.70080738
 Virial quotient                       -1.00182717
 !RHF STATE 1.1 Dipole moment           0.80717718     0.00000000     0.00000000
 Dipole moment /Debye                   2.05150539     0.00000000     0.00000000

 Orbital energies:

         1.1          2.1          3.1          4.1          5.1          6.1          7.1          8.1          9.1         10.1
    -20.650471   -20.567940   -11.459305    -1.528129    -1.353344    -0.798400    -0.712172    -0.585073     0.028418     0.050418

         1.2          2.2          3.2          4.2          5.2          6.2          7.2
    -20.650516    -1.475049    -0.740642    -0.541828    -0.510762     0.081454     0.157426

         1.3          2.3          3.3          4.3
     -0.717784    -0.712212     0.047179     0.075767

         1.4          2.4          3.4
     -0.541863     0.166314     0.264809


 **********************************************************************************************************************************
 DATASETS  * FILE   NREC   LENGTH (MB)   RECORD NAMES
              1      18        3.25       500      610      700      900      950      970     1000      129      960     1100   
                                          VAR    BASINP    GEOM    SYMINP    ZMAT    AOBASIS   BASIS     P2S    ABASIS      S 
                                         1400     1410     1200     1210     1080     1600     1650     1700   
                                           T        V       H0       H01     AOSYM     SMH    MOLCAS    OPER   

              2       3        0.67       700     1000     2100   
                                         GEOM     BASIS     RHF  

 PROGRAMS   *        TOTAL        HF       INT
 CPU TIMES  *         4.54      1.06      3.36
 REAL TIME  *         5.02 SEC
 DISK USED  *       535.87 MB      
 SF USED    *         0.06 MB      
 GA USED    *         0.00 MB       (max)       0.00 MB       (current)
 **********************************************************************************************************************************


1PROGRAM * CCSD (Closed-shell coupled cluster)     Authors: C. Hampel, H.-J. Werner, 1991, M. Deegan, P.J. Knowles, 1992

                                  CCSD-F12 implementation by  H.-J. Werner, 2007

                   Density fitting integral evaluation by F.R. Manby, 2003,2007, G. Knizia, 2010

 Basis set CC-PVTZ/JKFIT generated.      Number of basis functions:   376 
 Basis set AUG-CC-PVTZ/MP2FIT generated. Number of basis functions:   516 

 Convergence thresholds:  THRVAR = 1.00D-08  THRDEN = 1.00D-06

 CCSD(T)     terms to be evaluated (factor= 1.000)


 Number of core orbitals:           4 (   3   1   0   0 )
 Number of closed-shell orbitals:  12 (   5   4   2   1 )
 Number of external orbitals:     214 (  76  54  52  32 )

 Molecular orbitals read from record     2100.2  Type=RHF/CANONICAL (state 1.1)

 MP2-F12 correlation treatment (H.-J. Werner, 2006)
 --------------------------------------------------

 Using MP2-F12 with ansatz 3C(FIX)

 Using projected zeroth-order Hamiltonian (+Z)

 FOCKRIB=T FOCKRIC=T FOCKRIP=T CABSP=T CABSA=T CABSK=T CABSF=T GBC=F EBC=F DMAT=T NOFIK=T NOPAO=1 SOLVE=-1  USEPAO=0
 EXCH_A= T EXCH_B= F EXCH_C= F EXCH_P= F
 
 Geminal basis:    OPTFULL  GEM_TYPE=SLATER  BETA=1.0  NGEM=6

 Optimizing Gaussian exponents for each gem_beta

 Geminal optimization for beta= 1.0000
 Weight function:   m=0, omega= 1.4646

 Augmented Hessian optimization of geminal fit. Trust ratio= 0.40000
 Convergence reached after   2 iterations. Final gradient= 8.24D-16, Step= 4.32D-06, Delta= 1.28D-09
 
 Alpha:                 0.19532     0.81920     2.85917     9.50073    35.69989   197.79328
 Coeff:                 0.27070     0.30552     0.18297     0.10986     0.06810     0.04224
 

 Symmetry turned off. Reference energy:       -263.769516291526

 All pairs explicitly correlated. Number of r12-pairs:           78
 
 AO(A)-basis ORBITAL           loaded. Number of functions:     230
 RI(R)-basis CC-PVTZ/JKFIT     loaded. Number of functions:     376
 DF-basis CC-PVTZ/JKFIT        loaded. Number of functions:     376

 Screening thresholds:   THRAO=  1.00D-10  THRMO=  1.00D-09  THRPROD=  1.00D-09
                         THRSW=  1.00D-05  THROV=  1.00D-12  THRF12=   1.00D-08

 CPU time for Fock operators                      1.10 sec
 
 Construction of ABS:
 Smallest eigenvalue of S          2.57E-04  (threshold= 1.00E-08)
 Ratio eigmin/eigmax               1.83E-06  (threshold= 1.00E-09)
 Smallest eigenvalue of S kept     2.57E-04  (threshold= 2.57E-04, 0 functions deleted, 376 kept)
 
 Construction of CABS:
 Smallest eigenvalue of S          2.30E-08  (threshold= 1.00E-08)
 Ratio eigmin/eigmax               2.30E-08  (threshold= 1.00E-09)
 Smallest eigenvalue of S kept     2.30E-08  (threshold= 2.30E-08, 0 functions deleted, 376 kept)
 
 CPU time for CABS singles                        0.18 sec

 CABS-singles contribution of  -0.01592409 patched into reference energy.
 New reference energy        -263.78544038
 
 AO(A)-basis ORBITAL           loaded. Number of functions:     230
 RI(R)-basis CC-PVTZ/JKFIT     loaded. Number of functions:     376
 DF-basis AUG-CC-PVTZ/MP2FIT   loaded. Number of functions:     516

 Screening thresholds:   THRAO=  1.00D-10  THRMO=  1.00D-09  THRPROD=  1.00D-09
                         THRSW=  1.00D-05  THROV=  1.00D-12  THRF12=   1.00D-08

 CPU time for 3-index integral evaluation         1.91 sec
 CPU time for first  half transformation          0.28 sec ( 8371.8 MFLOP/sec)
 CPU time for second half transformation          0.03 sec ( 3420.6 MFLOP/sec)
 CPU time for sorting                             0.12 sec
 CPU time for fitting                             0.06 sec (23217.5 MFLOP/sec)
 CPU time for tilde quantities                    0.06 sec (30814.7 MFLOP/sec)
 CPU time for assembly                            0.87 sec (27090.8 MFLOP/sec)
 CPU time for tranop_f12                          0.94 sec (31719.3 MFLOP/sec)
 CPU time for f12 integrals (total)               6.59 sec
 F12-matrices built in  3 passes.
 F12-matrices built in  3 passes.
 F12-matrices built in  3 passes.
 F12-matrices built in  3 passes.
 FC-matrix built in  3 passes.
 CPU time for f12 matrices (total)                0.57 sec

 Diagonal F12 approximation with fixed coefficients:  TSING= 0.500,  TTRIP= 0.250 (scaled by -1/beta)

 DF-MP2-F12 energy corrections:
 ------------------------------
 Approx.                                    Singlet             Triplet             Total
 DF-MP2-F12/3*C(DX,FIX)                -0.097450215263     -0.016933728320     -0.114383943583
 DF-MP2-F12/3*C(FIX)                   -0.079865372798     -0.013395809354     -0.093261182152
 DF-MP2-F12/3C(FIX)                    -0.080226436709     -0.013419127111     -0.093645563820

 DF-MP2-F12 correlation energies:
 --------------------------------
 Approx.                                    Singlet             Triplet             Ecorr            Total Energy
 DF-MP2                                -0.537741489412     -0.343081436181     -0.880822925593   -264.666263307958
 DF-MP2-F12/3*C(DX,FIX)                -0.635191704675     -0.360015164501     -0.995206869176   -264.780647251541
 DF-MP2-F12/3*C(FIX)                   -0.617606862210     -0.356477245534     -0.974084107745   -264.759524490109
 DF-MP2-F12/3C(FIX)                    -0.617967926121     -0.356500563291     -0.974468489413   -264.759908871777

 SCS-DF-MP2 energies (F_SING= 1.20000  F_TRIP= 0.62222  F_PARALLEL= 0.33333):
 ----------------------------------------------------------------------------
 SCS-DF-MP2                            -0.858762680918   -264.644203063283
 SCS-DF-MP2-F12/3*C(DX,FIX)            -0.986239481300   -264.771679863664
 SCS-DF-MP2-F12/3*C(FIX)               -0.962936298540   -264.748376680905
 SCS-DF-MP2-F12/3C(FIX)                -0.963384084060   -264.748824466425

 Symmetry restored.
 Symmetry transformation completed.

 Number of N-1 electron functions:              12
 Number of N-2 electron functions:              78
 Number of singly external CSFs:               732
 Number of doubly external CSFs:            836016
 Total number of CSFs:                      836749

 Pair and operator lists are different

 Length of J-op  integral file:             462.26 MB
 Length of K-op  integral file:             502.03 MB
 Length of 3-ext integral record:             0.00 MB

 Memory could be reduced to 38.69 Mwords without degradation in triples

 Integral transformation finished. Total CPU:   1.49 sec, npass=  1  Memory used:   6.07 MW

 Reference energy:                   -263.78544038

 Adding F12 terms to K(Cij), methodcc=6,  factor=1.0

 ITER.      SQ.NORM     CORR.ENERGY   TOTAL ENERGY   ENERGY CHANGE        DEN1      VAR(S)    VAR(P)  DIIS     TIME
   1      1.20215787    -0.86277204  -264.64821242     0.01806733     0.04670347  0.72D-02  0.56D-02  1  1    11.30
   2      1.21647218    -0.85854432  -264.64398470     0.00422772    -0.02015495  0.86D-04  0.59D-03  2  2    12.34
   3      1.22183381    -0.85864052  -264.64408090    -0.00009620    -0.00236446  0.13D-03  0.32D-04  3  3    13.35
   4      1.22463626    -0.85851261  -264.64395299     0.00012790    -0.00141157  0.76D-05  0.41D-05  4  4    14.38
   5      1.22566646    -0.85847491  -264.64391529     0.00003770    -0.00036646  0.55D-06  0.29D-06  5  5    15.43
   6      1.22582864    -0.85844805  -264.64388843     0.00002686    -0.00000805  0.40D-07  0.24D-07  6  6    16.47
   7      1.22585799    -0.85844562  -264.64388600     0.00000242    -0.00000622  0.25D-08  0.40D-08  6  4    17.52
   8      1.22585829    -0.85844513  -264.64388551     0.00000049     0.00000195  0.39D-09  0.27D-09  6  1    18.57
   9      1.22585890    -0.85844520  -264.64388558    -0.00000007     0.00000056  0.25D-10  0.21D-10  6  2    19.62

 Norm of t1 vector:      0.10597266      S-energy:    -0.00000003      T1 diagnostic:  0.01529584
                                                                       D1 diagnostic:  0.04495114

 Adding energy correction from Wij-K(Fij), methodcc=6  factor=1.0
 
  CCSD correlation energy              -0.858445198219
  MP2-F12 correction (uncoupled)       -0.092488233390
  C*T doubles correction               -0.001475904732
  f12b correction                       0.015406868118


 Total CPU time for triples:     29.32 sec


 RESULTS
 =======

  Reference energy                   -263.769516291526
  F12 singles correction               -0.015924090839

 F12 singles corrections added to reference energy

  New reference energy               -263.785440382365

  F12a singlet correction              -0.080426420442
  F12a triplet correction              -0.013537717680
  F12a total correction                -0.093964138122

 F12a corrections for ansatz F12/3C(FIX) added to CCSD energy
 
  CCSD-F12a singlet pair energy        -0.641905602286
  CCSD-F12a triplet pair energy        -0.310503707115
  CCSD-F12a correlation energy         -0.952409336341

  Triples (T) contribution             -0.037641610403
  Total correlation energy             -0.990050946745

  CCSD-F12a total energy             -264.737849718706
  CCSD[T]-F12a energy                -264.778035405116
  CCSD-T-F12a energy                 -264.774553572424
 !CCSD(T)-F12a total energy          -264.775491329109

 F12b corrections for ansatz F12/3C(FIX) added to CCSD(T)-F12a energy

  CCSD-F12b singlet pair energy        -0.627722022403
  CCSD-F12b triplet pair energy        -0.309280418880
  CCSD-F12b correlation energy         -0.937002468223

  Triples (T) contribution             -0.037641610403
  Total correlation energy             -0.974644078626

  CCSD-F12b total energy             -264.722442850587
  CCSD[T]-F12b energy                -264.762628536998
  CCSD-T-F12b energy                 -264.759146704306
 !CCSD(T)-F12b total energy          -264.760084460991

 Timing summary (sec):

 STEP                 CPU(USER)    SYS     CPU(TOT)    WALL
 Transformation          1.50      0.23      1.73      1.74
 CCSD iterations         9.28      0.77     10.05     10.03
 Triples                29.32      0.84     30.16     30.15
 MP2-F12                 8.85      1.30     10.15     10.15
 F12b energy             0.60      0.00      0.60      0.61

 Program statistics:

 Available memory in ccsd:                99998934
 Min. memory needed in ccsd:               2244783
 Max. memory used in ccsd:                 3005571
 Max. memory used in cckext:               2769663 (10 integral passes)



 **********************************************************************************************************************************
 DATASETS  * FILE   NREC   LENGTH (MB)   RECORD NAMES
              1      20      137.19       500      610      700      900      950      970     1000      129      960     1100   
                                          VAR    BASINP    GEOM    SYMINP    ZMAT    AOBASIS   BASIS     P2S    ABASIS      S 
                                         1400     1410     1200     1210     1080     1600     1650     1700      960(1)  1380   
                                           T        V       H0       H01     AOSYM     SMH    MOLCAS    OPER    ABASIS    JKOP   

              2       5        0.97       700     1000     2100     7360     7350   
                                         GEOM     BASIS     RHF    F12ABS    EF12   

 PROGRAMS   *        TOTAL   CCSD(T)        HF       INT
 CPU TIMES  *        54.15     49.62      1.06      3.36
 REAL TIME  *        58.00 SEC
 DISK USED  *       757.53 MB      
 SF USED    *         1.33 GB      
 GA USED    *         2.40 MB       (max)       0.00 MB       (current)
 **********************************************************************************************************************************

     CCSD(T)-F12        HF-SCF  
   -264.76008446   -263.76951629
 **********************************************************************************************************************************
 Variable memory released
