
 Primary working directories    : /scratch/kee
 Secondary working directories  : /scratch/kee
 Wavefunction directory         : /home/kee/wfu/
 Main file repository           : /scratch/kee/

 ARCHNAME  : Linux/x86_64
 FC        : /opt/intel/composer_xe_2015.0.090/bin/intel64/ifort
 FCVERSION : 15.0.0
 BLASLIB   : -L/opt/intel/mkl/lib/intel64 -lmkl_intel_ilp64 -lmkl_sequential -lmkl_core
 id        : emory

 Nodes     nprocs
 node23       3
 Number of processes for MPI-2 version of Molpro:   nprocs(total)=    4   nprocs(compute)=    3   nprocs(helper)=    1
 ga_uses_ma=false, calling ma_init with nominal heap.
 GA-space will be limited to   8.0 MW (determined by -G option)

 Using customized tuning parameters: mindgm=7; mindgv=32; mindgc=1; mindgr=1; noblas=0; mincuda=1000; minvec=7
 default implementation of scratch files=sf  

 ***,co2h2o
 memory,100,m
 basis avtz
 geomtype = xyz
 geometry = {
 6
    -264.76489694
 O     0.82869278    1.16169550    0.00000000
 O     0.82658011   -1.16233555    0.00000000
 O    -7.14123420    0.00281774    0.00000000
 H    -7.72486721    0.76341239    0.00000000
 H    -7.72459910   -0.75798418    0.00000000
 C     0.80876519   -0.00029961    0.00000000
 }
 hf
 ccsd(t)-f12
 ---

 Variables initialized (665), CPU time= 0.00 sec
 Commands  initialized (462), CPU time= 0.01 sec, 486 directives.
 Default parameters read. Elapsed time= 0.04 sec

 Checking input...
 Passed
1


                                         ***  PROGRAM SYSTEM MOLPRO  ***
                         Copyright, University College Cardiff Consultants Limited, 2008

                                    Version 2010.1 linked 9 Dec 2014 15:06:28 


 **********************************************************************************************************************************
 LABEL *   co2h2o                                                                        
 Linux-2.6.32-504.el6.x86_64/node23(x86_64) 64 bit mpp version                           DATE: 07-Dec-16          TIME: 00:23:18  
 **********************************************************************************************************************************

 Patch level:      19
 **********************************************************************************************************************************

 Variable memory set to  100000000 words,  buffer space   230000 words

 SETTING BASIS          =    AVTZ
 SETTING GEOMTYPE       =    XYZ

Geometry recognized as XYZ



 Recomputing integrals since basis changed


 Using spherical harmonics

 Library entry O      S aug-cc-pVTZ          selected for orbital group  1
 Library entry O      P aug-cc-pVTZ          selected for orbital group  1
 Library entry O      D aug-cc-pVTZ          selected for orbital group  1
 Library entry O      F aug-cc-pVTZ          selected for orbital group  1
 Library entry H      S aug-cc-pVTZ          selected for orbital group  2
 Library entry H      P aug-cc-pVTZ          selected for orbital group  2
 Library entry H      D aug-cc-pVTZ          selected for orbital group  2
 Library entry C      S aug-cc-pVTZ          selected for orbital group  3
 Library entry C      P aug-cc-pVTZ          selected for orbital group  3
 Library entry C      D aug-cc-pVTZ          selected for orbital group  3
 Library entry C      F aug-cc-pVTZ          selected for orbital group  3

1PROGRAM * SEWARD (Integral evaluation for generally contracted gaussian basis sets)     Author: Roland Lindh, 1990

 Geometry written to block  1 of record 700


 Point group  Cs  



 ATOMIC COORDINATES

 NR  ATOM    CHARGE       X              Y              Z

   1  O       8.00    1.566002401    2.195286343    0.000000000
   2  O       8.00    1.562010034   -2.196495862    0.000000000
   3  O       8.00  -13.494976878    0.005324757    0.000000000
   4  H       1.00  -14.597883428    1.442640342    0.000000000
   5  H       1.00  -14.597376774   -1.432382512    0.000000000
   6  C       6.00    1.528344714   -0.000566181    0.000000000

 Bond lengths in Bohr (Angstrom)

 1-6  2.196175405  2-6  2.196187724  3-4  1.811706088  3-5  1.811708509
     (1.162165971)     (1.162172490)     (0.958713571)     (0.958714852)

 Bond angles

  1-6-2  178.13918425   4-3-5  105.01947441

 NUCLEAR CHARGE:                   32
 NUMBER OF PRIMITIVE AOS:         322
 NUMBER OF SYMMETRY AOS:          282
 NUMBER OF CONTRACTIONS:          230   ( 152A'  +  78A"  )
 NUMBER OF CORE ORBITALS:           4   (   4A'  +   0A"  )
 NUMBER OF VALENCE ORBITALS:       18   (  14A'  +   4A"  )


 NUCLEAR REPULSION ENERGY   81.76616285


 Eigenvalues of metric

         1 0.349E-03 0.373E-03 0.393E-03 0.416E-03 0.902E-03 0.922E-03 0.167E-02 0.175E-02
         2 0.318E-02 0.348E-02 0.595E-02 0.124E-01 0.136E-01 0.296E-01 0.296E-01 0.319E-01


 Contracted 2-electron integrals neglected if value below      1.0D-11
 AO integral compression algorithm  1   Integral accuracy      1.0D-11

     307.233 MB (compressed) written to integral file ( 24.0%)

     Node minimum: 95.683 MB, node maximum: 111.411 MB


 NUMBER OF SORTED TWO-ELECTRON INTEGRALS:   59950380.     BUFFER LENGTH:  32768
 NUMBER OF SEGMENTS:   4  SEGMENT LENGTH:   15995235      RECORD LENGTH: 524288

 Memory used in sort:      16.55 MW

 SORT1 READ   159839707. AND WROTE    21392587. INTEGRALS IN     64 RECORDS. CPU TIME:     1.83 SEC, REAL TIME:     2.10 SEC
 SORT2 READ    64244790. AND WROTE   179836431. INTEGRALS IN   1095 RECORDS. CPU TIME:     0.74 SEC, REAL TIME:     1.02 SEC

 Node minimum:    59940574.  Node maximum:    59950380. integrals

 OPERATOR DM      FOR CENTER  0  COORDINATES:    0.000000    0.000000    0.000000


 **********************************************************************************************************************************
 DATASETS  * FILE   NREC   LENGTH (MB)   RECORD NAMES
              1      18        3.74       500      610      700      900      950      970     1000      129      960     1100   
                                          VAR    BASINP    GEOM    SYMINP    ZMAT    AOBASIS   BASIS     P2S    ABASIS      S 
                                         1400     1410     1200     1210     1080     1600     1650     1700   
                                           T        V       H0       H01     AOSYM     SMH    MOLCAS    OPER   

 PROGRAMS   *        TOTAL       INT
 CPU TIMES  *         5.49      5.39
 REAL TIME  *         6.38 SEC
 DISK USED  *         1.08 GB      
 GA USED    *         0.00 MB       (max)       0.00 MB       (current)
 **********************************************************************************************************************************

1PROGRAM * RHF-SCF (CLOSED SHELL)       Authors: W. Meyer, H.-J. Werner


 NUMBER OF ELECTRONS:      16+   16-
 CONVERGENCE THRESHOLDS:    1.00E-05 (Density)    1.00E-07 (Energy)
 MAX. NUMBER OF ITERATIONS:       60
 INTERPOLATION TYPE:            DIIS
 INTERPOLATION STEPS:              2 (START)      1 (STEP)
 LEVEL SHIFTS:                  0.00 (CLOSED)  0.00 (OPEN) 



 Orbital guess generated from atomic densities. Full valence occupancy:   18   4

 Molecular orbital dump at record        2100.2

 Initial alpha occupancy:  13   3
 Initial beta  occupancy:  13   3
 Wave function symmetry:    1

 ITERATION    DDIFF          GRAD             ENERGY        2-EL.EN.            DIPOLE MOMENTS         DIIS
    1      0.000D+00      0.000D+00      -263.66045858    359.134069   -1.18420   -0.00012    0.00000    0
    2      0.000D+00      0.629D-02      -263.72569747    354.542368   -0.68711   -0.00010    0.00000    1
    3      0.101D-01      0.427D-02      -263.76898404    357.106271   -0.81100   -0.00009    0.00000    2
    4      0.415D-02      0.402D-03      -263.76947911    356.894253   -0.81433   -0.00010    0.00000    3
    5      0.485D-03      0.117D-03      -263.76953710    356.896455   -0.80892   -0.00009    0.00000    4
    6      0.181D-03      0.472D-04      -263.76954426    356.910910   -0.80959   -0.00009    0.00000    5
    7      0.603D-04      0.116D-04      -263.76954499    356.902562   -0.80914   -0.00009    0.00000    6
    8      0.197D-04      0.254D-05      -263.76954504    356.903862   -0.80915   -0.00009    0.00000    7
    9      0.541D-05      0.852D-06      -263.76954504    356.903670   -0.80912   -0.00009    0.00000    0

 Final occupancy:  13   3

 !RHF STATE 1.1 Energy               -263.769545041165
 Nuclear energy                        81.76616285
 One-electron energy                 -523.98754286
 Two-electron energy                  178.45183497
 Virial quotient                       -1.00182908
 !RHF STATE 1.1 Dipole moment          -0.80912051    -0.00009282     0.00000000
 Dipole moment /Debye                  -2.05644452    -0.00023592     0.00000000

 Orbital energies:

         1.1          2.1          3.1          4.1          5.1          6.1          7.1          8.1          9.1         10.1
    -20.650184   -20.650139   -20.567873   -11.458970    -1.527847    -1.474749    -1.353121    -0.798092    -0.740346    -0.718656

        11.1         12.1         13.1         14.1         15.1
     -0.711870    -0.584363    -0.541510     0.028348     0.047163

         1.2          2.2          3.2          4.2          5.2
     -0.711918    -0.541553    -0.510745     0.075794     0.157792


 **********************************************************************************************************************************
 DATASETS  * FILE   NREC   LENGTH (MB)   RECORD NAMES
              1      18        3.76       500      610      700      900      950      970     1000      129      960     1100   
                                          VAR    BASINP    GEOM    SYMINP    ZMAT    AOBASIS   BASIS     P2S    ABASIS      S 
                                         1400     1410     1200     1210     1080     1600     1650     1700   
                                           T        V       H0       H01     AOSYM     SMH    MOLCAS    OPER   

              2       3        0.96       700     1000     2100   
                                         GEOM     BASIS     RHF  

 PROGRAMS   *        TOTAL        HF       INT
 CPU TIMES  *         8.99      3.50      5.39
 REAL TIME  *        10.06 SEC
 DISK USED  *         1.11 GB      
 SF USED    *         0.12 MB      
 GA USED    *         0.00 MB       (max)       0.00 MB       (current)
 **********************************************************************************************************************************


1PROGRAM * CCSD (Closed-shell coupled cluster)     Authors: C. Hampel, H.-J. Werner, 1991, M. Deegan, P.J. Knowles, 1992

                                  CCSD-F12 implementation by  H.-J. Werner, 2007

                   Density fitting integral evaluation by F.R. Manby, 2003,2007, G. Knizia, 2010

 Basis set CC-PVTZ/JKFIT generated.      Number of basis functions:   376 
 Basis set AUG-CC-PVTZ/MP2FIT generated. Number of basis functions:   516 

 Convergence thresholds:  THRVAR = 1.00D-08  THRDEN = 1.00D-06

 CCSD(T)     terms to be evaluated (factor= 1.000)


 Number of core orbitals:           4 (   4   0 )
 Number of closed-shell orbitals:  12 (   9   3 )
 Number of external orbitals:     214 ( 139  75 )

 Molecular orbitals read from record     2100.2  Type=RHF/CANONICAL (state 1.1)

 MP2-F12 correlation treatment (H.-J. Werner, 2006)
 --------------------------------------------------

 Using MP2-F12 with ansatz 3C(FIX)

 Using projected zeroth-order Hamiltonian (+Z)

 FOCKRIB=T FOCKRIC=T FOCKRIP=T CABSP=T CABSA=T CABSK=T CABSF=T GBC=F EBC=F DMAT=T NOFIK=T NOPAO=1 SOLVE=-1  USEPAO=0
 EXCH_A= T EXCH_B= F EXCH_C= F EXCH_P= F
 
 Geminal basis:    OPTFULL  GEM_TYPE=SLATER  BETA=1.0  NGEM=6

 Optimizing Gaussian exponents for each gem_beta

 Geminal optimization for beta= 1.0000
 Weight function:   m=0, omega= 1.4646

 Augmented Hessian optimization of geminal fit. Trust ratio= 0.40000
 Convergence reached after   2 iterations. Final gradient= 8.24D-16, Step= 4.32D-06, Delta= 1.28D-09
 
 Alpha:                 0.19532     0.81920     2.85917     9.50073    35.69989   197.79328
 Coeff:                 0.27070     0.30552     0.18297     0.10986     0.06810     0.04224
 

 Symmetry turned off. Reference energy:       -263.769545041165

 All pairs explicitly correlated. Number of r12-pairs:           78
 
 AO(A)-basis ORBITAL           loaded. Number of functions:     230
 RI(R)-basis CC-PVTZ/JKFIT     loaded. Number of functions:     376
 DF-basis CC-PVTZ/JKFIT        loaded. Number of functions:     376

 Screening thresholds:   THRAO=  1.00D-10  THRMO=  1.00D-09  THRPROD=  1.00D-09
                         THRSW=  1.00D-05  THROV=  1.00D-12  THRF12=   1.00D-08

 CPU time for Fock operators                      0.96 sec
 
 Construction of ABS:
 Smallest eigenvalue of S          2.57E-04  (threshold= 1.00E-08)
 Ratio eigmin/eigmax               1.83E-06  (threshold= 1.00E-09)
 Smallest eigenvalue of S kept     2.57E-04  (threshold= 2.57E-04, 0 functions deleted, 376 kept)
 
 Construction of CABS:
 Smallest eigenvalue of S          2.30E-08  (threshold= 1.00E-08)
 Ratio eigmin/eigmax               2.30E-08  (threshold= 1.00E-09)
 Smallest eigenvalue of S kept     2.30E-08  (threshold= 2.30E-08, 0 functions deleted, 376 kept)
 
 CPU time for CABS singles                        0.18 sec

 CABS-singles contribution of  -0.01592391 patched into reference energy.
 New reference energy        -263.78546895
 
 AO(A)-basis ORBITAL           loaded. Number of functions:     230
 RI(R)-basis CC-PVTZ/JKFIT     loaded. Number of functions:     376
 DF-basis AUG-CC-PVTZ/MP2FIT   loaded. Number of functions:     516

 Screening thresholds:   THRAO=  1.00D-10  THRMO=  1.00D-09  THRPROD=  1.00D-09
                         THRSW=  1.00D-05  THROV=  1.00D-12  THRF12=   1.00D-08

 CPU time for 3-index integral evaluation         2.03 sec
 CPU time for first  half transformation          0.26 sec ( 9248.1 MFLOP/sec)
 CPU time for second half transformation          0.01 sec ( 9885.8 MFLOP/sec)
 CPU time for sorting                             0.13 sec
 CPU time for fitting                             0.05 sec (27861.0 MFLOP/sec)
 CPU time for tilde quantities                    0.11 sec (16885.5 MFLOP/sec)
 CPU time for assembly                            0.87 sec (27562.6 MFLOP/sec)
 CPU time for tranop_f12                          0.96 sec (32041.8 MFLOP/sec)
 CPU time for f12 integrals (total)               6.65 sec
 F12-matrices built in  3 passes.
 F12-matrices built in  3 passes.
 F12-matrices built in  3 passes.
 F12-matrices built in  3 passes.
 FC-matrix built in  3 passes.
 CPU time for f12 matrices (total)                0.53 sec

 Diagonal F12 approximation with fixed coefficients:  TSING= 0.500,  TTRIP= 0.250 (scaled by -1/beta)

 DF-MP2-F12 energy corrections:
 ------------------------------
 Approx.                                    Singlet             Triplet             Total
 DF-MP2-F12/3*C(DX,FIX)                -0.097453279702     -0.016934230927     -0.114387510629
 DF-MP2-F12/3*C(FIX)                   -0.079869411275     -0.013396310221     -0.093265721497
 DF-MP2-F12/3C(FIX)                    -0.080230136730     -0.013419441889     -0.093649578619

 DF-MP2-F12 correlation energies:
 --------------------------------
 Approx.                                    Singlet             Triplet             Ecorr            Total Energy
 DF-MP2                                -0.537717844158     -0.343063945620     -0.880781789778   -264.666250736199
 DF-MP2-F12/3*C(DX,FIX)                -0.635171123861     -0.359998176547     -0.995169300407   -264.780638246828
 DF-MP2-F12/3*C(FIX)                   -0.617587255433     -0.356460255841     -0.974047511275   -264.759516457695
 DF-MP2-F12/3C(FIX)                    -0.617947980888     -0.356483387509     -0.974431368397   -264.759900314818

 SCS-DF-MP2 energies (F_SING= 1.20000  F_TRIP= 0.62222  F_PARALLEL= 0.33333):
 ----------------------------------------------------------------------------
 SCS-DF-MP2                            -0.858723423598   -264.644192370018
 SCS-DF-MP2-F12/3*C(DX,FIX)            -0.986204214040   -264.771673160460
 SCS-DF-MP2-F12/3*C(FIX)               -0.962902199044   -264.748371145464
 SCS-DF-MP2-F12/3C(FIX)                -0.963349462627   -264.748818409047

 Symmetry restored.
 Symmetry transformation completed.

 Number of N-1 electron functions:              12
 Number of N-2 electron functions:              78
 Number of singly external CSFs:              1476
 Number of doubly external CSFs:           1686804
 Total number of CSFs:                     1688281

 Pair and operator lists are different

 Length of J-op  integral file:             466.42 MB
 Length of K-op  integral file:             526.62 MB
 Length of 3-ext integral record:             0.00 MB

 Memory could be reduced to 76.61 Mwords without degradation in triples

 Integral transformation finished. Total CPU:   4.53 sec, npass=  1  Memory used:  24.61 MW

 Reference energy:                   -263.78546895

 Adding F12 terms to K(Cij), methodcc=6,  factor=1.0

 ITER.      SQ.NORM     CORR.ENERGY   TOTAL ENERGY   ENERGY CHANGE        DEN1      VAR(S)    VAR(P)  DIIS     TIME
   1      1.20214072    -0.86273669  -264.64820564     0.01806158     0.04669034  0.72D-02  0.56D-02  1  1    15.96
   2      1.21645175    -0.85851061  -264.64397956     0.00422608    -0.02015049  0.86D-04  0.59D-03  2  2    19.20
   3      1.22181166    -0.85860685  -264.64407580    -0.00009624    -0.00236384  0.13D-03  0.32D-04  3  3    22.96
   4      1.22461317    -0.85847903  -264.64394798     0.00012782    -0.00141118  0.76D-05  0.41D-05  4  4    26.95
   5      1.22564306    -0.85844134  -264.64391029     0.00003769    -0.00036634  0.56D-06  0.29D-06  5  5    30.95
   6      1.22580524    -0.85841448  -264.64388343     0.00002686    -0.00000805  0.40D-07  0.24D-07  6  6    33.85
   7      1.22583459    -0.85841206  -264.64388100     0.00000242    -0.00000622  0.25D-08  0.40D-08  6  4    36.71
   8      1.22583489    -0.85841157  -264.64388052     0.00000049     0.00000195  0.39D-09  0.27D-09  6  1    39.48
   9      1.22583550    -0.85841164  -264.64388058    -0.00000007     0.00000056  0.26D-10  0.21D-10  6  2    42.28

 Norm of t1 vector:      0.10595483      S-energy:    -0.00000002      T1 diagnostic:  0.01529326
                                                                       D1 diagnostic:  0.04494946

 Adding energy correction from Wij-K(Fij), methodcc=6  factor=1.0
 
  CCSD correlation energy              -0.858411635771
  MP2-F12 correction (uncoupled)       -0.092492747499
  C*T doubles correction               -0.001475577282
  f12b correction                       0.015407207715


 Total CPU time for triples:     80.39 sec


 RESULTS
 =======

  Reference energy                   -263.769545041165
  F12 singles correction               -0.015923905256

 F12 singles corrections added to reference energy

  New reference energy               -263.785468946421

  F12a singlet correction              -0.080430139884
  F12a triplet correction              -0.013538184897
  F12a total correction                -0.093968324781

 F12a corrections for ansatz F12/3C(FIX) added to CCSD energy
 
  CCSD-F12a singlet pair energy        -0.641885047361
  CCSD-F12a triplet pair energy        -0.310494888574
  CCSD-F12a correlation energy         -0.952379960552

  Triples (T) contribution             -0.037636933461
  Total correlation energy             -0.990016894013

  CCSD-F12a total energy             -264.737848906973
  CCSD[T]-F12a energy                -264.778029099588
  CCSD-T-F12a energy                 -264.774548432737
 !CCSD(T)-F12a total energy          -264.775485840434

 F12b corrections for ansatz F12/3C(FIX) added to CCSD(T)-F12a energy

  CCSD-F12b singlet pair energy        -0.627701199817
  CCSD-F12b triplet pair energy        -0.309271528403
  CCSD-F12b correlation energy         -0.936972752837

  Triples (T) contribution             -0.037636933461
  Total correlation energy             -0.974609686298

  CCSD-F12b total energy             -264.722441699258
  CCSD[T]-F12b energy                -264.762621891874
  CCSD-T-F12b energy                 -264.759141225022
 !CCSD(T)-F12b total energy          -264.760078632719

 Timing summary (sec):

 STEP                 CPU(USER)    SYS     CPU(TOT)    WALL
 Transformation          4.57      0.55      5.12      5.11
 CCSD iterations        28.97      1.53     30.50     30.88
 Triples                80.39      1.58     81.97     81.94
 MP2-F12                 8.75      1.25     10.00     10.00
 F12b energy             1.82      0.03      1.85      1.85

 Program statistics:

 Available memory in ccsd:                99998934
 Min. memory needed in ccsd:               4458306
 Max. memory used in ccsd:                 5958390
 Max. memory used in cckext:               6352469 (10 integral passes)



 **********************************************************************************************************************************
 DATASETS  * FILE   NREC   LENGTH (MB)   RECORD NAMES
              1      20      269.66       500      610      700      900      950      970     1000      129      960     1100   
                                          VAR    BASINP    GEOM    SYMINP    ZMAT    AOBASIS   BASIS     P2S    ABASIS      S 
                                         1400     1410     1200     1210     1080     1600     1650     1700      960(1)  1380   
                                           T        V       H0       H01     AOSYM     SMH    MOLCAS    OPER    ABASIS    JKOP   

              2       5        1.55       700     1000     2100     7360     7350   
                                         GEOM     BASIS     RHF    F12ABS    EF12   

 PROGRAMS   *        TOTAL   CCSD(T)        HF       INT
 CPU TIMES  *       133.57    124.58      3.50      5.39
 REAL TIME  *       140.23 SEC
 DISK USED  *         1.55 GB      
 SF USED    *         1.53 GB      
 GA USED    *         2.40 MB       (max)       0.00 MB       (current)
 **********************************************************************************************************************************

     CCSD(T)-F12        HF-SCF  
   -264.76007863   -263.76954504
 **********************************************************************************************************************************
 Variable memory released
