
 Primary working directories    : /scratch/kee
 Secondary working directories  : /scratch/kee
 Wavefunction directory         : /home/kee/wfu/
 Main file repository           : /scratch/kee/

 ARCHNAME  : Linux/x86_64
 FC        : /opt/intel/composer_xe_2015.0.090/bin/intel64/ifort
 FCVERSION : 15.0.0
 BLASLIB   : -L/opt/intel/mkl/lib/intel64 -lmkl_intel_ilp64 -lmkl_sequential -lmkl_core
 id        : emory

 Nodes     nprocs
 node23       3
 Number of processes for MPI-2 version of Molpro:   nprocs(total)=    4   nprocs(compute)=    3   nprocs(helper)=    1
 ga_uses_ma=false, calling ma_init with nominal heap.
 GA-space will be limited to   8.0 MW (determined by -G option)

 Using customized tuning parameters: mindgm=7; mindgv=32; mindgc=1; mindgr=1; noblas=0; mincuda=1000; minvec=7
 default implementation of scratch files=sf  

 ***,co2h2o
 memory,100,m
 basis avtz
 geomtype = xyz
 geometry = {
 6
       0.00000000
 O     0.00032100    1.15989800    0.00000000
 O     0.00041400   -1.15989400    0.00000000
 O     3.21194419    2.34584968    0.84145474
 H     4.00349870    2.65480533    0.39910610
 H     3.52593000    1.86722193    1.60957697
 C     0.01953800    0.00000300    0.00000000
 }
 hf
 ccsd(t)-f12
 ---

 Variables initialized (665), CPU time= 0.00 sec
 Commands  initialized (462), CPU time= 0.01 sec, 486 directives.
 Default parameters read. Elapsed time= 0.04 sec

 Checking input...
 Passed
1


                                         ***  PROGRAM SYSTEM MOLPRO  ***
                         Copyright, University College Cardiff Consultants Limited, 2008

                                    Version 2010.1 linked 9 Dec 2014 15:06:28 


 **********************************************************************************************************************************
 LABEL *   co2h2o                                                                        
 Linux-2.6.32-504.el6.x86_64/node23(x86_64) 64 bit mpp version                           DATE: 15-Dec-16          TIME: 01:38:02  
 **********************************************************************************************************************************

 Patch level:      19
 **********************************************************************************************************************************

 Variable memory set to  100000000 words,  buffer space   230000 words

 SETTING BASIS          =    AVTZ
 SETTING GEOMTYPE       =    XYZ

Geometry recognized as XYZ



 Recomputing integrals since basis changed


 Using spherical harmonics

 Library entry O      S aug-cc-pVTZ          selected for orbital group  1
 Library entry O      P aug-cc-pVTZ          selected for orbital group  1
 Library entry O      D aug-cc-pVTZ          selected for orbital group  1
 Library entry O      F aug-cc-pVTZ          selected for orbital group  1
 Library entry H      S aug-cc-pVTZ          selected for orbital group  2
 Library entry H      P aug-cc-pVTZ          selected for orbital group  2
 Library entry H      D aug-cc-pVTZ          selected for orbital group  2
 Library entry C      S aug-cc-pVTZ          selected for orbital group  3
 Library entry C      P aug-cc-pVTZ          selected for orbital group  3
 Library entry C      D aug-cc-pVTZ          selected for orbital group  3
 Library entry C      F aug-cc-pVTZ          selected for orbital group  3

1PROGRAM * SEWARD (Integral evaluation for generally contracted gaussian basis sets)     Author: Roland Lindh, 1990

 Geometry written to block  1 of record 700


 Point group  C1  



 ATOMIC COORDINATES

 NR  ATOM    CHARGE       X              Y              Z

   1  O       8.00    0.000606602    2.191889560    0.000000000
   2  O       8.00    0.000782347   -2.191882001    0.000000000
   3  O       8.00    6.069694869    4.433013441    1.590119011
   4  H       1.00    7.565516111    5.016855006    0.754201226
   5  H       1.00    6.663042059    3.528538074    3.041659661
   6  C       6.00    0.036921469    0.000005669    0.000000000

 Bond lengths in Bohr (Angstrom)

 1-6  2.192184701  2-6  2.192185575  3-4  1.810279178  3-5  1.810278110
     (1.160054182)     (1.160054644)     (0.957958483)     (0.957957918)

 Bond angles

  1-6-2  178.10622893   4-3-5  105.10354968

 NUCLEAR CHARGE:                   32
 NUMBER OF PRIMITIVE AOS:         322
 NUMBER OF SYMMETRY AOS:          282
 NUMBER OF CONTRACTIONS:          230   ( 230A   )
 NUMBER OF CORE ORBITALS:           4   (   4A   )
 NUMBER OF VALENCE ORBITALS:       18   (  18A   )


 NUCLEAR REPULSION ENERGY   95.55717443


 Eigenvalues of metric

         1 0.320E-03 0.358E-03 0.366E-03 0.373E-03 0.875E-03 0.890E-03 0.154E-02 0.161E-02


 Contracted 2-electron integrals neglected if value below      1.0D-11
 AO integral compression algorithm  1   Integral accuracy      1.0D-11

     1059.324 MB (compressed) written to integral file ( 32.3%)

     Node minimum: 339.214 MB, node maximum: 365.167 MB


 NUMBER OF SORTED TWO-ELECTRON INTEGRALS:  117629820.     BUFFER LENGTH:  32768
 NUMBER OF SEGMENTS:   8  SEGMENT LENGTH:   15997437      RECORD LENGTH: 524288

 Memory used in sort:      16.55 MW

 SORT1 READ   410632105. AND WROTE    84584279. INTEGRALS IN    246 RECORDS. CPU TIME:     5.09 SEC, REAL TIME:     5.92 SEC
 SORT2 READ   252972913. AND WROTE   352862895. INTEGRALS IN   4062 RECORDS. CPU TIME:     1.56 SEC, REAL TIME:     2.19 SEC

 Node minimum:   117612110.  Node maximum:   117629820. integrals

 OPERATOR DM      FOR CENTER  0  COORDINATES:    0.000000    0.000000    0.000000


 **********************************************************************************************************************************
 DATASETS  * FILE   NREC   LENGTH (MB)   RECORD NAMES
              1      18        4.62       500      610      700      900      950      970     1000      129      960     1100   
                                          VAR    BASINP    GEOM    SYMINP    ZMAT    AOBASIS   BASIS     P2S    ABASIS      S 
                                         1400     1410     1200     1210     1080     1600     1650     1700   
                                           T        V       H0       H01     AOSYM     SMH    MOLCAS    OPER   

 PROGRAMS   *        TOTAL       INT
 CPU TIMES  *        11.25     11.18
 REAL TIME  *        13.30 SEC
 DISK USED  *         4.05 GB      
 GA USED    *         0.00 MB       (max)       0.00 MB       (current)
 **********************************************************************************************************************************

1PROGRAM * RHF-SCF (CLOSED SHELL)       Authors: W. Meyer, H.-J. Werner


 NUMBER OF ELECTRONS:      16+   16-    SPACE SYMMETRY=1    SPIN SYMMETRY=Singlet 
 CONVERGENCE THRESHOLDS:    1.00E-05 (Density)    1.00E-07 (Energy)
 MAX. NUMBER OF ITERATIONS:       60
 INTERPOLATION TYPE:            DIIS
 INTERPOLATION STEPS:              2 (START)      1 (STEP)
 LEVEL SHIFTS:                  0.00 (CLOSED)  0.00 (OPEN) 



 Orbital guess generated from atomic densities. Full valence occupancy:   22

 Molecular orbital dump at record        2100.2

 ITERATION    DDIFF          GRAD             ENERGY        2-EL.EN.            DIPOLE MOMENTS         DIIS
    1      0.000D+00      0.000D+00      -263.66007050    387.165214    1.12594   -0.16330    0.31507    0
    2      0.000D+00      0.469D-02      -263.72539792    382.369481    0.67060    0.00275    0.18710    1
    3      0.751D-02      0.319D-02      -263.76886598    384.985662    0.78684   -0.06218    0.21748    2
    4      0.309D-02      0.298D-03      -263.76935607    384.772657    0.78909   -0.05035    0.21839    3
    5      0.359D-03      0.895D-04      -263.76941424    384.774966    0.78458   -0.05784    0.21695    4
    6      0.136D-03      0.377D-04      -263.76942216    384.787932    0.78497   -0.05302    0.21707    5
    7      0.458D-04      0.104D-04      -263.76942302    384.781641    0.78471   -0.05477    0.21700    6
    8      0.161D-04      0.364D-05      -263.76942311    384.780890    0.78461   -0.05405    0.21697    7
    9      0.473D-05      0.171D-05      -263.76942312    384.781789    0.78463   -0.05433    0.21697    0

 Final occupancy:  16

 !RHF STATE 1.1 Energy               -263.769423122263
 Nuclear energy                        95.55717443
 One-electron energy                 -551.71749202
 Two-electron energy                  192.39089447
 Virial quotient                       -1.00172552
 !RHF STATE 1.1 Dipole moment           0.78463216    -0.05432957     0.21697495
 Dipole moment /Debye                   1.99420541    -0.13808295     0.55145920

 Orbital energies:

         1.1          2.1          3.1          4.1          5.1          6.1          7.1          8.1          9.1         10.1
    -20.643252   -20.641353   -20.568447   -11.450291    -1.521777    -1.468526    -1.354319    -0.790499    -0.733201    -0.720155

        11.1         12.1         13.1         14.1         15.1         16.1         17.1         18.1
     -0.705736    -0.705464    -0.584953    -0.534376    -0.533963    -0.511539     0.027045     0.046095


 **********************************************************************************************************************************
 DATASETS  * FILE   NREC   LENGTH (MB)   RECORD NAMES
              1      18        4.62       500      610      700      900      950      970     1000      129      960     1100   
                                          VAR    BASINP    GEOM    SYMINP    ZMAT    AOBASIS   BASIS     P2S    ABASIS      S 
                                         1400     1410     1200     1210     1080     1600     1650     1700   
                                           T        V       H0       H01     AOSYM     SMH    MOLCAS    OPER   

              2       3        1.44       700     1000     2100   
                                         GEOM     BASIS     RHF  

 PROGRAMS   *        TOTAL        HF       INT
 CPU TIMES  *        22.50     11.25     11.18
 REAL TIME  *        25.08 SEC
 DISK USED  *         4.08 GB      
 SF USED    *         0.21 MB      
 GA USED    *         0.00 MB       (max)       0.00 MB       (current)
 **********************************************************************************************************************************


1PROGRAM * CCSD (Closed-shell coupled cluster)     Authors: C. Hampel, H.-J. Werner, 1991, M. Deegan, P.J. Knowles, 1992

                                  CCSD-F12 implementation by  H.-J. Werner, 2007

                   Density fitting integral evaluation by F.R. Manby, 2003,2007, G. Knizia, 2010

 Basis set CC-PVTZ/JKFIT generated.      Number of basis functions:   376 
 Basis set AUG-CC-PVTZ/MP2FIT generated. Number of basis functions:   516 

 Convergence thresholds:  THRVAR = 1.00D-08  THRDEN = 1.00D-06

 CCSD(T)     terms to be evaluated (factor= 1.000)


 Number of core orbitals:           4 (   4 )
 Number of closed-shell orbitals:  12 (  12 )
 Number of external orbitals:     214 ( 214 )

 Molecular orbitals read from record     2100.2  Type=RHF/CANONICAL (state 1.1)

 MP2-F12 correlation treatment (H.-J. Werner, 2006)
 --------------------------------------------------

 Using MP2-F12 with ansatz 3C(FIX)

 Using projected zeroth-order Hamiltonian (+Z)

 FOCKRIB=T FOCKRIC=T FOCKRIP=T CABSP=T CABSA=T CABSK=T CABSF=T GBC=F EBC=F DMAT=T NOFIK=T NOPAO=1 SOLVE=-1  USEPAO=0
 EXCH_A= T EXCH_B= F EXCH_C= F EXCH_P= F
 
 Geminal basis:    OPTFULL  GEM_TYPE=SLATER  BETA=1.0  NGEM=6

 Optimizing Gaussian exponents for each gem_beta

 Geminal optimization for beta= 1.0000
 Weight function:   m=0, omega= 1.4646

 Augmented Hessian optimization of geminal fit. Trust ratio= 0.40000
 Convergence reached after   2 iterations. Final gradient= 8.24D-16, Step= 4.32D-06, Delta= 1.28D-09
 
 Alpha:                 0.19532     0.81920     2.85917     9.50073    35.69989   197.79328
 Coeff:                 0.27070     0.30552     0.18297     0.10986     0.06810     0.04224
 

 All pairs explicitly correlated. Number of r12-pairs:           78
 
 AO(A)-basis ORBITAL           loaded. Number of functions:     230
 RI(R)-basis CC-PVTZ/JKFIT     loaded. Number of functions:     376
 DF-basis CC-PVTZ/JKFIT        loaded. Number of functions:     376

 Screening thresholds:   THRAO=  1.00D-10  THRMO=  1.00D-09  THRPROD=  1.00D-09
                         THRSW=  1.00D-05  THROV=  1.00D-12  THRF12=   1.00D-08

 CPU time for Fock operators                      0.94 sec
 
 Construction of ABS:
 Smallest eigenvalue of S          2.55E-04  (threshold= 1.00E-08)
 Ratio eigmin/eigmax               1.82E-06  (threshold= 1.00E-09)
 Smallest eigenvalue of S kept     2.55E-04  (threshold= 2.55E-04, 0 functions deleted, 376 kept)
 
 Construction of CABS:
 Smallest eigenvalue of S          2.25E-08  (threshold= 1.00E-08)
 Ratio eigmin/eigmax               2.25E-08  (threshold= 1.00E-09)
 Smallest eigenvalue of S kept     2.25E-08  (threshold= 2.25E-08, 0 functions deleted, 376 kept)
 
 CPU time for CABS singles                        0.16 sec

 CABS-singles contribution of  -0.01596200 patched into reference energy.
 New reference energy        -263.78538513
 
 AO(A)-basis ORBITAL           loaded. Number of functions:     230
 RI(R)-basis CC-PVTZ/JKFIT     loaded. Number of functions:     376
 DF-basis AUG-CC-PVTZ/MP2FIT   loaded. Number of functions:     516

 Screening thresholds:   THRAO=  1.00D-10  THRMO=  1.00D-09  THRPROD=  1.00D-09
                         THRSW=  1.00D-05  THROV=  1.00D-12  THRF12=   1.00D-08

 CPU time for 3-index integral evaluation         2.75 sec
 CPU time for first  half transformation          0.19 sec (15363.4 MFLOP/sec)
 CPU time for second half transformation          0.02 sec ( 5034.2 MFLOP/sec)
 CPU time for sorting                             0.21 sec
 CPU time for fitting                             0.06 sec (23217.5 MFLOP/sec)
 CPU time for tilde quantities                    0.04 sec (46222.0 MFLOP/sec)
 CPU time for assembly                            0.80 sec (28939.1 MFLOP/sec)
 CPU time for tranop_f12                          0.86 sec (34243.0 MFLOP/sec)
 CPU time for f12 integrals (total)               7.03 sec
 F12-matrices built in  3 passes.
 F12-matrices built in  3 passes.
 F12-matrices built in  3 passes.
 F12-matrices built in  3 passes.
 FC-matrix built in  3 passes.
 CPU time for f12 matrices (total)                0.46 sec

 Diagonal F12 approximation with fixed coefficients:  TSING= 0.500,  TTRIP= 0.250 (scaled by -1/beta)

 DF-MP2-F12 energy corrections:
 ------------------------------
 Approx.                                    Singlet             Triplet             Total
 DF-MP2-F12/3*C(DX,FIX)                -0.097448239196     -0.016954412223     -0.114402651419
 DF-MP2-F12/3*C(FIX)                   -0.079852096776     -0.013418729302     -0.093270826078
 DF-MP2-F12/3C(FIX)                    -0.080216030631     -0.013445704893     -0.093661735524

 DF-MP2-F12 correlation energies:
 --------------------------------
 Approx.                                    Singlet             Triplet             Ecorr            Total Energy
 DF-MP2                                -0.537623884297     -0.343269701257     -0.880893585554   -264.666278710645
 DF-MP2-F12/3*C(DX,FIX)                -0.635072123493     -0.360224113480     -0.995296236973   -264.780681362065
 DF-MP2-F12/3*C(FIX)                   -0.617475981072     -0.356688430560     -0.974164411632   -264.759549536724
 DF-MP2-F12/3C(FIX)                    -0.617839914928     -0.356715406150     -0.974555321078   -264.759940446169

 SCS-DF-MP2 energies (F_SING= 1.20000  F_TRIP= 0.62222  F_PARALLEL= 0.33333):
 ----------------------------------------------------------------------------
 SCS-DF-MP2                            -0.858738697494   -264.644123822585
 SCS-DF-MP2-F12/3*C(DX,FIX)            -0.986225996579   -264.771611121671
 SCS-DF-MP2-F12/3*C(FIX)               -0.962910645191   -264.748295770282
 SCS-DF-MP2-F12/3C(FIX)                -0.963364150629   -264.748749275721
 Symmetry transformation completed.

 Number of N-1 electron functions:              12
 Number of N-2 electron functions:              78
 Number of singly external CSFs:              2568
 Number of doubly external CSFs:           3298596
 Total number of CSFs:                     3301165

 Pair and operator lists are different

 Length of J-op  integral file:             474.22 MB
 Length of K-op  integral file:             572.29 MB
 Length of 3-ext integral record:             0.00 MB

 For full I/O caching in triples, increase memory by 50.81 Mwords to 151.09 Mwords.

 Integral transformation finished. Total CPU:  12.67 sec, npass=  1  Memory used:  87.46 MW

 Reference energy:                   -263.78538513

 Adding F12 terms to K(Cij), methodcc=6,  factor=1.0

 ITER.      SQ.NORM     CORR.ENERGY   TOTAL ENERGY   ENERGY CHANGE        DEN1      VAR(S)    VAR(P)  DIIS     TIME
   1      1.20198665    -0.86288122  -264.64826634     0.01802741     0.04654933  0.71D-02  0.55D-02  1  1    30.36
   2      1.21625428    -0.85868306  -264.64406819     0.00419816    -0.02009870  0.85D-04  0.59D-03  2  2    39.06
   3      1.22157393    -0.85877770  -264.64416282    -0.00009464    -0.00234951  0.13D-03  0.32D-04  3  3    47.81
   4      1.22435248    -0.85865134  -264.64403647     0.00012636    -0.00140336  0.75D-05  0.41D-05  4  4    56.57
   5      1.22536943    -0.85861418  -264.64399930     0.00003716    -0.00036230  0.55D-06  0.28D-06  5  5    65.35
   6      1.22552967    -0.85858768  -264.64397281     0.00002650    -0.00000787  0.40D-07  0.24D-07  6  6    74.16
   7      1.22555885    -0.85858528  -264.64397041     0.00000240    -0.00000618  0.27D-08  0.40D-08  6  4    82.87
   8      1.22555932    -0.85858479  -264.64396991     0.00000050     0.00000186  0.41D-09  0.28D-09  6  1    91.67
   9      1.22555990    -0.85858486  -264.64396998    -0.00000007     0.00000058  0.31D-10  0.24D-10  6  2   100.38

 Norm of t1 vector:      0.10553498      S-energy:     0.00000167      T1 diagnostic:  0.01523266
                                                                       D1 diagnostic:  0.04471755

 Adding energy correction from Wij-K(Fij), methodcc=6  factor=1.0
 
  CCSD correlation energy              -0.858584856523
  MP2-F12 correction (uncoupled)       -0.092506662727
  C*T doubles correction               -0.001473119219
  f12b correction                       0.015403615712


 Total CPU time for triples:    196.27 sec


 RESULTS
 =======

  Reference energy                   -263.769423122263
  F12 singles correction               -0.015962002829

 F12 singles corrections added to reference energy

  New reference energy               -263.785385125092

  F12a singlet correction              -0.080417134093
  F12a triplet correction              -0.013562647853
  F12a total correction                -0.093979781946

 F12a corrections for ansatz F12/3C(FIX) added to CCSD energy
 
  CCSD-F12a singlet pair energy        -0.641726838717
  CCSD-F12a triplet pair energy        -0.310839468739
  CCSD-F12a correlation energy         -0.952564638468

  Triples (T) contribution             -0.037635558132
  Total correlation energy             -0.990200196600

  CCSD-F12a total energy             -264.737949763560
  CCSD[T]-F12a energy                -264.778112543319
  CCSD-T-F12a energy                 -264.774652653828
 !CCSD(T)-F12a total energy          -264.775585321692

 F12b corrections for ansatz F12/3C(FIX) added to CCSD(T)-F12a energy

  CCSD-F12b singlet pair energy        -0.627548608594
  CCSD-F12b triplet pair energy        -0.309614083149
  CCSD-F12b correlation energy         -0.937161022756

  Triples (T) contribution             -0.037635558132
  Total correlation energy             -0.974796580888

  CCSD-F12b total energy             -264.722546147848
  CCSD[T]-F12b energy                -264.762708927607
  CCSD-T-F12b energy                 -264.759249038116
 !CCSD(T)-F12b total energy          -264.760181705979

 Timing summary (sec):

 STEP                 CPU(USER)    SYS     CPU(TOT)    WALL
 Transformation         12.77      1.12     13.89     13.88
 CCSD iterations        78.47      3.10     81.57     81.55
 Triples               196.27      2.19    198.46    198.36
 MP2-F12                 9.15      1.15     10.30     10.31
 F12b energy             6.03      0.08      6.11      6.11

 Program statistics:

 Available memory in ccsd:                99998934
 Min. memory needed in ccsd:               8644845
 Max. memory used in ccsd:                11598633
 Max. memory used in cckext:               8768967 (10 integral passes)



 **********************************************************************************************************************************
 DATASETS  * FILE   NREC   LENGTH (MB)   RECORD NAMES
              1      20      527.84       500      610      700      900      950      970     1000      129      960     1100   
                                          VAR    BASINP    GEOM    SYMINP    ZMAT    AOBASIS   BASIS     P2S    ABASIS      S 
                                         1400     1410     1200     1210     1080     1600     1650     1700      960(1)  1380   
                                           T        V       H0       H01     AOSYM     SMH    MOLCAS    OPER    ABASIS    JKOP   

              2       5        2.50       700     1000     2100     7360     7350   
                                         GEOM     BASIS     RHF    F12ABS    EF12   

 PROGRAMS   *        TOTAL   CCSD(T)        HF       INT
 CPU TIMES  *       325.22    302.72     11.25     11.18
 REAL TIME  *       335.68 SEC
 DISK USED  *         4.95 GB      
 SF USED    *         1.91 GB      
 GA USED    *         2.40 MB       (max)       0.00 MB       (current)
 **********************************************************************************************************************************

     CCSD(T)-F12        HF-SCF  
   -264.76018171   -263.76942312
 **********************************************************************************************************************************
 Variable memory released
