
 Primary working directories    : /scratch/kee
 Secondary working directories  : /scratch/kee
 Wavefunction directory         : /home/kee/wfu/
 Main file repository           : /scratch/kee/

 ARCHNAME  : Linux/x86_64
 FC        : /opt/intel/composer_xe_2015.0.090/bin/intel64/ifort
 FCVERSION : 15.0.0
 BLASLIB   : -L/opt/intel/mkl/lib/intel64 -lmkl_intel_ilp64 -lmkl_sequential -lmkl_core
 id        : emory

 Nodes     nprocs
 node23       3
 Number of processes for MPI-2 version of Molpro:   nprocs(total)=    4   nprocs(compute)=    3   nprocs(helper)=    1
 ga_uses_ma=false, calling ma_init with nominal heap.
 GA-space will be limited to   8.0 MW (determined by -G option)

 Using customized tuning parameters: mindgm=7; mindgv=32; mindgc=1; mindgr=1; noblas=0; mincuda=1000; minvec=7
 default implementation of scratch files=sf  

 ***,co2h2o
 memory,100,m
 basis avtz
 geomtype = xyz
 geometry = {
 6
       0.00000000
 O     0.00032100    1.15989800    0.00000000
 O     0.00041400   -1.15989400    0.00000000
 O     3.25135661    2.37481075    0.85184307
 H     4.04291113    2.68376640    0.40949443
 H     3.56534242    1.89618300    1.61996530
 C     0.01953800    0.00000300    0.00000000
 }
 hf
 ccsd(t)-f12
 ---

 Variables initialized (665), CPU time= 0.00 sec
 Commands  initialized (462), CPU time= 0.01 sec, 486 directives.
 Default parameters read. Elapsed time= 0.04 sec

 Checking input...
 Passed
1


                                         ***  PROGRAM SYSTEM MOLPRO  ***
                         Copyright, University College Cardiff Consultants Limited, 2008

                                    Version 2010.1 linked 9 Dec 2014 15:06:28 


 **********************************************************************************************************************************
 LABEL *   co2h2o                                                                        
 Linux-2.6.32-504.el6.x86_64/node23(x86_64) 64 bit mpp version                           DATE: 15-Dec-16          TIME: 01:43:39  
 **********************************************************************************************************************************

 Patch level:      19
 **********************************************************************************************************************************

 Variable memory set to  100000000 words,  buffer space   230000 words

 SETTING BASIS          =    AVTZ
 SETTING GEOMTYPE       =    XYZ

Geometry recognized as XYZ



 Recomputing integrals since basis changed


 Using spherical harmonics

 Library entry O      S aug-cc-pVTZ          selected for orbital group  1
 Library entry O      P aug-cc-pVTZ          selected for orbital group  1
 Library entry O      D aug-cc-pVTZ          selected for orbital group  1
 Library entry O      F aug-cc-pVTZ          selected for orbital group  1
 Library entry H      S aug-cc-pVTZ          selected for orbital group  2
 Library entry H      P aug-cc-pVTZ          selected for orbital group  2
 Library entry H      D aug-cc-pVTZ          selected for orbital group  2
 Library entry C      S aug-cc-pVTZ          selected for orbital group  3
 Library entry C      P aug-cc-pVTZ          selected for orbital group  3
 Library entry C      D aug-cc-pVTZ          selected for orbital group  3
 Library entry C      F aug-cc-pVTZ          selected for orbital group  3

1PROGRAM * SEWARD (Integral evaluation for generally contracted gaussian basis sets)     Author: Roland Lindh, 1990

 Geometry written to block  1 of record 700


 Point group  C1  



 ATOMIC COORDINATES

 NR  ATOM    CHARGE       X              Y              Z

   1  O       8.00    0.000606602    2.191889560    0.000000000
   2  O       8.00    0.000782347   -2.191882001    0.000000000
   3  O       8.00    6.144173548    4.487741931    1.609750109
   4  H       1.00    7.639994809    5.071583497    0.773832325
   5  H       1.00    6.737520739    3.583266565    3.061290759
   6  C       6.00    0.036921469    0.000005669    0.000000000

 Bond lengths in Bohr (Angstrom)

 1-6  2.192184701  2-6  2.192185575  3-4  1.810279194  3-5  1.810278110
     (1.160054182)     (1.160054644)     (0.957958491)     (0.957957918)

 Bond angles

  1-6-2  178.10622893   4-3-5  105.10354935

 NUCLEAR CHARGE:                   32
 NUMBER OF PRIMITIVE AOS:         322
 NUMBER OF SYMMETRY AOS:          282
 NUMBER OF CONTRACTIONS:          230   ( 230A   )
 NUMBER OF CORE ORBITALS:           4   (   4A   )
 NUMBER OF VALENCE ORBITALS:       18   (  18A   )


 NUCLEAR REPULSION ENERGY   95.22737395


 Eigenvalues of metric

         1 0.322E-03 0.359E-03 0.367E-03 0.374E-03 0.878E-03 0.891E-03 0.155E-02 0.162E-02


 Contracted 2-electron integrals neglected if value below      1.0D-11
 AO integral compression algorithm  1   Integral accuracy      1.0D-11

     1047.790 MB (compressed) written to integral file ( 31.9%)

     Node minimum: 341.049 MB, node maximum: 353.632 MB


 NUMBER OF SORTED TWO-ELECTRON INTEGRALS:  117629820.     BUFFER LENGTH:  32768
 NUMBER OF SEGMENTS:   8  SEGMENT LENGTH:   15997437      RECORD LENGTH: 524288

 Memory used in sort:      16.55 MW

 SORT1 READ   410612505. AND WROTE    83787634. INTEGRALS IN    244 RECORDS. CPU TIME:     5.02 SEC, REAL TIME:     5.82 SEC
 SORT2 READ   250593218. AND WROTE   352862895. INTEGRALS IN   4047 RECORDS. CPU TIME:     1.56 SEC, REAL TIME:     2.19 SEC

 Node minimum:   117612110.  Node maximum:   117629820. integrals

 OPERATOR DM      FOR CENTER  0  COORDINATES:    0.000000    0.000000    0.000000


 **********************************************************************************************************************************
 DATASETS  * FILE   NREC   LENGTH (MB)   RECORD NAMES
              1      18        4.62       500      610      700      900      950      970     1000      129      960     1100   
                                          VAR    BASINP    GEOM    SYMINP    ZMAT    AOBASIS   BASIS     P2S    ABASIS      S 
                                         1400     1410     1200     1210     1080     1600     1650     1700   
                                           T        V       H0       H01     AOSYM     SMH    MOLCAS    OPER   

 PROGRAMS   *        TOTAL       INT
 CPU TIMES  *        11.24     11.17
 REAL TIME  *        13.00 SEC
 DISK USED  *         4.01 GB      
 GA USED    *         0.00 MB       (max)       0.00 MB       (current)
 **********************************************************************************************************************************

1PROGRAM * RHF-SCF (CLOSED SHELL)       Authors: W. Meyer, H.-J. Werner


 NUMBER OF ELECTRONS:      16+   16-    SPACE SYMMETRY=1    SPIN SYMMETRY=Singlet 
 CONVERGENCE THRESHOLDS:    1.00E-05 (Density)    1.00E-07 (Energy)
 MAX. NUMBER OF ITERATIONS:       60
 INTERPOLATION TYPE:            DIIS
 INTERPOLATION STEPS:              2 (START)      1 (STEP)
 LEVEL SHIFTS:                  0.00 (CLOSED)  0.00 (OPEN) 



 Orbital guess generated from atomic densities. Full valence occupancy:   22

 Molecular orbital dump at record        2100.2

 ITERATION    DDIFF          GRAD             ENERGY        2-EL.EN.            DIPOLE MOMENTS         DIIS
    1      0.000D+00      0.000D+00      -263.66014286    386.489446    1.12592   -0.16338    0.31507    0
    2      0.000D+00      0.469D-02      -263.72546766    381.701486    0.66960   -0.00080    0.18710    1
    3      0.751D-02      0.319D-02      -263.76890588    384.315471    0.78600   -0.06394    0.21748    2
    4      0.309D-02      0.298D-03      -263.76939586    384.102408    0.78829   -0.05253    0.21840    3
    5      0.359D-03      0.893D-04      -263.76945390    384.104798    0.78376   -0.05974    0.21696    4
    6      0.135D-03      0.375D-04      -263.76946175    384.117808    0.78416   -0.05507    0.21709    5
    7      0.457D-04      0.103D-04      -263.76946260    384.111427    0.78389   -0.05679    0.21701    6
    8      0.160D-04      0.361D-05      -263.76946269    384.110735    0.78380   -0.05607    0.21698    7
    9      0.470D-05      0.171D-05      -263.76946270    384.111622    0.78382   -0.05635    0.21699    0

 Final occupancy:  16

 !RHF STATE 1.1 Energy               -263.769462699142
 Nuclear energy                        95.22737395
 One-electron energy                 -551.05264746
 Two-electron energy                  192.05581081
 Virial quotient                       -1.00172690
 !RHF STATE 1.1 Dipole moment           0.78381943    -0.05635388     0.21698753
 Dipole moment /Debye                   1.99213978    -0.14322789     0.55149117

 Orbital energies:

         1.1          2.1          3.1          4.1          5.1          6.1          7.1          8.1          9.1         10.1
    -20.643491   -20.641661   -20.568397   -11.450567    -1.522042    -1.468799    -1.354252    -0.790761    -0.733471    -0.720083

        11.1         12.1         13.1         14.1         15.1         16.1         17.1         18.1
     -0.705995    -0.705728    -0.584877    -0.534642    -0.534259    -0.511489     0.027103     0.046085


 **********************************************************************************************************************************
 DATASETS  * FILE   NREC   LENGTH (MB)   RECORD NAMES
              1      18        4.62       500      610      700      900      950      970     1000      129      960     1100   
                                          VAR    BASINP    GEOM    SYMINP    ZMAT    AOBASIS   BASIS     P2S    ABASIS      S 
                                         1400     1410     1200     1210     1080     1600     1650     1700   
                                           T        V       H0       H01     AOSYM     SMH    MOLCAS    OPER   

              2       3        1.44       700     1000     2100   
                                         GEOM     BASIS     RHF  

 PROGRAMS   *        TOTAL        HF       INT
 CPU TIMES  *        22.58     11.34     11.17
 REAL TIME  *        24.81 SEC
 DISK USED  *         4.04 GB      
 SF USED    *         0.21 MB      
 GA USED    *         0.00 MB       (max)       0.00 MB       (current)
 **********************************************************************************************************************************


1PROGRAM * CCSD (Closed-shell coupled cluster)     Authors: C. Hampel, H.-J. Werner, 1991, M. Deegan, P.J. Knowles, 1992

                                  CCSD-F12 implementation by  H.-J. Werner, 2007

                   Density fitting integral evaluation by F.R. Manby, 2003,2007, G. Knizia, 2010

 Basis set CC-PVTZ/JKFIT generated.      Number of basis functions:   376 
 Basis set AUG-CC-PVTZ/MP2FIT generated. Number of basis functions:   516 

 Convergence thresholds:  THRVAR = 1.00D-08  THRDEN = 1.00D-06

 CCSD(T)     terms to be evaluated (factor= 1.000)


 Number of core orbitals:           4 (   4 )
 Number of closed-shell orbitals:  12 (  12 )
 Number of external orbitals:     214 ( 214 )

 Molecular orbitals read from record     2100.2  Type=RHF/CANONICAL (state 1.1)

 MP2-F12 correlation treatment (H.-J. Werner, 2006)
 --------------------------------------------------

 Using MP2-F12 with ansatz 3C(FIX)

 Using projected zeroth-order Hamiltonian (+Z)

 FOCKRIB=T FOCKRIC=T FOCKRIP=T CABSP=T CABSA=T CABSK=T CABSF=T GBC=F EBC=F DMAT=T NOFIK=T NOPAO=1 SOLVE=-1  USEPAO=0
 EXCH_A= T EXCH_B= F EXCH_C= F EXCH_P= F
 
 Geminal basis:    OPTFULL  GEM_TYPE=SLATER  BETA=1.0  NGEM=6

 Optimizing Gaussian exponents for each gem_beta

 Geminal optimization for beta= 1.0000
 Weight function:   m=0, omega= 1.4646

 Augmented Hessian optimization of geminal fit. Trust ratio= 0.40000
 Convergence reached after   2 iterations. Final gradient= 8.24D-16, Step= 4.32D-06, Delta= 1.28D-09
 
 Alpha:                 0.19532     0.81920     2.85917     9.50073    35.69989   197.79328
 Coeff:                 0.27070     0.30552     0.18297     0.10986     0.06810     0.04224
 

 All pairs explicitly correlated. Number of r12-pairs:           78
 
 AO(A)-basis ORBITAL           loaded. Number of functions:     230
 RI(R)-basis CC-PVTZ/JKFIT     loaded. Number of functions:     376
 DF-basis CC-PVTZ/JKFIT        loaded. Number of functions:     376

 Screening thresholds:   THRAO=  1.00D-10  THRMO=  1.00D-09  THRPROD=  1.00D-09
                         THRSW=  1.00D-05  THROV=  1.00D-12  THRF12=   1.00D-08

 CPU time for Fock operators                      0.93 sec
 
 Construction of ABS:
 Smallest eigenvalue of S          2.55E-04  (threshold= 1.00E-08)
 Ratio eigmin/eigmax               1.82E-06  (threshold= 1.00E-09)
 Smallest eigenvalue of S kept     2.55E-04  (threshold= 2.55E-04, 0 functions deleted, 376 kept)
 
 Construction of CABS:
 Smallest eigenvalue of S          2.25E-08  (threshold= 1.00E-08)
 Ratio eigmin/eigmax               2.25E-08  (threshold= 1.00E-09)
 Smallest eigenvalue of S kept     2.25E-08  (threshold= 2.25E-08, 0 functions deleted, 376 kept)
 
 CPU time for CABS singles                        0.15 sec

 CABS-singles contribution of  -0.01596251 patched into reference energy.
 New reference energy        -263.78542521
 
 AO(A)-basis ORBITAL           loaded. Number of functions:     230
 RI(R)-basis CC-PVTZ/JKFIT     loaded. Number of functions:     376
 DF-basis AUG-CC-PVTZ/MP2FIT   loaded. Number of functions:     516

 Screening thresholds:   THRAO=  1.00D-10  THRMO=  1.00D-09  THRPROD=  1.00D-09
                         THRSW=  1.00D-05  THROV=  1.00D-12  THRF12=   1.00D-08

 CPU time for 3-index integral evaluation         2.78 sec
 CPU time for first  half transformation          0.25 sec (12140.1 MFLOP/sec)
 CPU time for second half transformation          0.02 sec ( 5586.2 MFLOP/sec)
 CPU time for sorting                             0.17 sec
 CPU time for fitting                             0.06 sec (23217.5 MFLOP/sec)
 CPU time for tilde quantities                    0.08 sec (23111.0 MFLOP/sec)
 CPU time for assembly                            0.77 sec (30688.9 MFLOP/sec)
 CPU time for tranop_f12                          0.86 sec (34837.4 MFLOP/sec)
 CPU time for f12 integrals (total)               6.99 sec
 F12-matrices built in  3 passes.
 F12-matrices built in  3 passes.
 F12-matrices built in  3 passes.
 F12-matrices built in  3 passes.
 FC-matrix built in  3 passes.
 CPU time for f12 matrices (total)                0.50 sec

 Diagonal F12 approximation with fixed coefficients:  TSING= 0.500,  TTRIP= 0.250 (scaled by -1/beta)

 DF-MP2-F12 energy corrections:
 ------------------------------
 Approx.                                    Singlet             Triplet             Total
 DF-MP2-F12/3*C(DX,FIX)                -0.097451320172     -0.016953639124     -0.114404959297
 DF-MP2-F12/3*C(FIX)                   -0.079855015821     -0.013417342378     -0.093272358198
 DF-MP2-F12/3C(FIX)                    -0.080218550775     -0.013444015391     -0.093662566166

 DF-MP2-F12 correlation energies:
 --------------------------------
 Approx.                                    Singlet             Triplet             Ecorr            Total Energy
 DF-MP2                                -0.537605306335     -0.343234633959     -0.880839940294   -264.666265152595
 DF-MP2-F12/3*C(DX,FIX)                -0.635056626507     -0.360188273083     -0.995244899590   -264.780670111892
 DF-MP2-F12/3*C(FIX)                   -0.617460322156     -0.356651976336     -0.974112298492   -264.759537510794
 DF-MP2-F12/3C(FIX)                    -0.617823857110     -0.356678649349     -0.974502506459   -264.759927718761

 SCS-DF-MP2 energies (F_SING= 1.20000  F_TRIP= 0.62222  F_PARALLEL= 0.33333):
 ----------------------------------------------------------------------------
 SCS-DF-MP2                            -0.858694584288   -264.644119796589
 SCS-DF-MP2-F12/3*C(DX,FIX)            -0.986185099505   -264.771610311806
 SCS-DF-MP2-F12/3*C(FIX)               -0.962869171863   -264.748294384164
 SCS-DF-MP2-F12/3C(FIX)                -0.963322010350   -264.748747222651
 Symmetry transformation completed.

 Number of N-1 electron functions:              12
 Number of N-2 electron functions:              78
 Number of singly external CSFs:              2568
 Number of doubly external CSFs:           3298596
 Total number of CSFs:                     3301165

 Pair and operator lists are different

 Length of J-op  integral file:             474.22 MB
 Length of K-op  integral file:             572.29 MB
 Length of 3-ext integral record:             0.00 MB

 For full I/O caching in triples, increase memory by 50.81 Mwords to 151.09 Mwords.

 Integral transformation finished. Total CPU:  12.56 sec, npass=  1  Memory used:  87.46 MW

 Reference energy:                   -263.78542521

 Adding F12 terms to K(Cij), methodcc=6,  factor=1.0

 ITER.      SQ.NORM     CORR.ENERGY   TOTAL ENERGY   ENERGY CHANGE        DEN1      VAR(S)    VAR(P)  DIIS     TIME
   1      1.20197347    -0.86283386  -264.64825907     0.01802120     0.04653880  0.71D-02  0.55D-02  1  1    30.25
   2      1.21623834    -0.85863656  -264.64406178     0.00419729    -0.02009510  0.85D-04  0.59D-03  2  2    39.05
   3      1.22155768    -0.85873113  -264.64415635    -0.00009457    -0.00234989  0.13D-03  0.32D-04  3  3    47.75
   4      1.22433575    -0.85860486  -264.64403007     0.00012627    -0.00140319  0.74D-05  0.41D-05  4  4    56.43
   5      1.22535250    -0.85856770  -264.64399291     0.00003716    -0.00036225  0.55D-06  0.28D-06  5  5    65.18
   6      1.22551270    -0.85854121  -264.64396642     0.00002649    -0.00000787  0.40D-07  0.24D-07  6  6    73.85
   7      1.22554186    -0.85853881  -264.64396402     0.00000240    -0.00000618  0.27D-08  0.40D-08  6  4    82.54
   8      1.22554231    -0.85853832  -264.64396353     0.00000050     0.00000187  0.41D-09  0.28D-09  6  1    91.24
   9      1.22554290    -0.85853839  -264.64396360    -0.00000007     0.00000058  0.30D-10  0.24D-10  6  2    99.93

 Norm of t1 vector:      0.10552493      S-energy:     0.00000165      T1 diagnostic:  0.01523121
                                                                       D1 diagnostic:  0.04471123

 Adding energy correction from Wij-K(Fij), methodcc=6  factor=1.0
 
  CCSD correlation energy              -0.858538386702
  MP2-F12 correction (uncoupled)       -0.092507816194
  C*T doubles correction               -0.001473107529
  f12b correction                       0.015403424227


 Total CPU time for triples:    196.36 sec


 RESULTS
 =======

  Reference energy                   -263.769462699141
  F12 singles correction               -0.015962513160

 F12 singles corrections added to reference energy

  New reference energy               -263.785425212301

  F12a singlet correction              -0.080419786126
  F12a triplet correction              -0.013561137597
  F12a total correction                -0.093980923723

 F12a corrections for ansatz F12/3C(FIX) added to CCSD energy
 
  CCSD-F12a singlet pair energy        -0.641715243286
  CCSD-F12a triplet pair energy        -0.310805719192
  CCSD-F12a correlation energy         -0.952519310425

  Triples (T) contribution             -0.037626854583
  Total correlation energy             -0.990146165009

  CCSD-F12a total energy             -264.737944522727
  CCSD[T]-F12a energy                -264.778097945783
  CCSD-T-F12a energy                 -264.774638887683
 !CCSD(T)-F12a total energy          -264.775571377310

 F12b corrections for ansatz F12/3C(FIX) added to CCSD(T)-F12a energy

  CCSD-F12b singlet pair energy        -0.627537030206
  CCSD-F12b triplet pair energy        -0.309580508045
  CCSD-F12b correlation energy         -0.937115886198

  Triples (T) contribution             -0.037626854583
  Total correlation energy             -0.974742740781

  CCSD-F12b total energy             -264.722541098500
  CCSD[T]-F12b energy                -264.762694521556
  CCSD-T-F12b energy                 -264.759235463455
 !CCSD(T)-F12b total energy          -264.760167953083

 Timing summary (sec):

 STEP                 CPU(USER)    SYS     CPU(TOT)    WALL
 Transformation         12.66      1.11     13.77     13.76
 CCSD iterations        78.14      3.03     81.17     81.13
 Triples               196.36      2.12    198.48    198.39
 MP2-F12                 9.16      1.18     10.34     10.35
 F12b energy             6.06      0.07      6.13      6.13

 Program statistics:

 Available memory in ccsd:                99998934
 Min. memory needed in ccsd:               8644845
 Max. memory used in ccsd:                11598633
 Max. memory used in cckext:               8768967 (10 integral passes)



 **********************************************************************************************************************************
 DATASETS  * FILE   NREC   LENGTH (MB)   RECORD NAMES
              1      20      527.84       500      610      700      900      950      970     1000      129      960     1100   
                                          VAR    BASINP    GEOM    SYMINP    ZMAT    AOBASIS   BASIS     P2S    ABASIS      S 
                                         1400     1410     1200     1210     1080     1600     1650     1700      960(1)  1380   
                                           T        V       H0       H01     AOSYM     SMH    MOLCAS    OPER    ABASIS    JKOP   

              2       5        2.50       700     1000     2100     7360     7350   
                                         GEOM     BASIS     RHF    F12ABS    EF12   

 PROGRAMS   *        TOTAL   CCSD(T)        HF       INT
 CPU TIMES  *       325.15    302.57     11.34     11.17
 REAL TIME  *       334.94 SEC
 DISK USED  *         4.91 GB      
 SF USED    *         1.91 GB      
 GA USED    *         2.40 MB       (max)       0.00 MB       (current)
 **********************************************************************************************************************************

     CCSD(T)-F12        HF-SCF  
   -264.76016795   -263.76946270
 **********************************************************************************************************************************
 Variable memory released
