
 Primary working directories    : /scratch/kee
 Secondary working directories  : /scratch/kee
 Wavefunction directory         : /home/kee/wfu/
 Main file repository           : /scratch/kee/

 ARCHNAME  : Linux/x86_64
 FC        : /opt/intel/composer_xe_2015.0.090/bin/intel64/ifort
 FCVERSION : 15.0.0
 BLASLIB   : -L/opt/intel/mkl/lib/intel64 -lmkl_intel_ilp64 -lmkl_sequential -lmkl_core
 id        : emory

 Nodes     nprocs
 node23       3
 Number of processes for MPI-2 version of Molpro:   nprocs(total)=    4   nprocs(compute)=    3   nprocs(helper)=    1
 ga_uses_ma=false, calling ma_init with nominal heap.
 GA-space will be limited to   8.0 MW (determined by -G option)

 Using customized tuning parameters: mindgm=7; mindgv=32; mindgc=1; mindgr=1; noblas=0; mincuda=1000; minvec=7
 default implementation of scratch files=sf  

 ***,co2h2o
 memory,100,m
 basis avtz
 geomtype = xyz
 geometry = {
 6
       0.00000000
 O     0.00032100    1.15989800    0.00000000
 O     0.00041400   -1.15989400    0.00000000
 O     3.05429450    2.23000540    0.79990142
 H     3.84584901    2.53896105    0.35755278
 H     3.36828031    1.75137765    1.56802365
 C     0.01953800    0.00000300    0.00000000
 }
 hf
 ccsd(t)-f12
 ---

 Variables initialized (665), CPU time= 0.00 sec
 Commands  initialized (462), CPU time= 0.01 sec, 486 directives.
 Default parameters read. Elapsed time= 0.03 sec

 Checking input...
 Passed
1


                                         ***  PROGRAM SYSTEM MOLPRO  ***
                         Copyright, University College Cardiff Consultants Limited, 2008

                                    Version 2010.1 linked 9 Dec 2014 15:06:28 


 **********************************************************************************************************************************
 LABEL *   co2h2o                                                                        
 Linux-2.6.32-504.el6.x86_64/node23(x86_64) 64 bit mpp version                           DATE: 15-Dec-16          TIME: 01:14:29  
 **********************************************************************************************************************************

 Patch level:      19
 **********************************************************************************************************************************

 Variable memory set to  100000000 words,  buffer space   230000 words

 SETTING BASIS          =    AVTZ
 SETTING GEOMTYPE       =    XYZ

Geometry recognized as XYZ



 Recomputing integrals since basis changed


 Using spherical harmonics

 Library entry O      S aug-cc-pVTZ          selected for orbital group  1
 Library entry O      P aug-cc-pVTZ          selected for orbital group  1
 Library entry O      D aug-cc-pVTZ          selected for orbital group  1
 Library entry O      F aug-cc-pVTZ          selected for orbital group  1
 Library entry H      S aug-cc-pVTZ          selected for orbital group  2
 Library entry H      P aug-cc-pVTZ          selected for orbital group  2
 Library entry H      D aug-cc-pVTZ          selected for orbital group  2
 Library entry C      S aug-cc-pVTZ          selected for orbital group  3
 Library entry C      P aug-cc-pVTZ          selected for orbital group  3
 Library entry C      D aug-cc-pVTZ          selected for orbital group  3
 Library entry C      F aug-cc-pVTZ          selected for orbital group  3

1PROGRAM * SEWARD (Integral evaluation for generally contracted gaussian basis sets)     Author: Roland Lindh, 1990

 Geometry written to block  1 of record 700


 Point group  C1  



 ATOMIC COORDINATES

 NR  ATOM    CHARGE       X              Y              Z

   1  O       8.00    0.000606602    2.191889560    0.000000000
   2  O       8.00    0.000782347   -2.191882001    0.000000000
   3  O       8.00    5.771780130    4.214099478    1.511594616
   4  H       1.00    7.267601372    4.797941043    0.675676832
   5  H       1.00    6.365127320    3.309624111    2.963135266
   6  C       6.00    0.036921469    0.000005669    0.000000000

 Bond lengths in Bohr (Angstrom)

 1-6  2.192184701  2-6  2.192185575  3-4  1.810279178  3-5  1.810278110
     (1.160054182)     (1.160054644)     (0.957958483)     (0.957957918)

 Bond angles

  1-6-2  178.10622893   4-3-5  105.10354968

 NUCLEAR CHARGE:                   32
 NUMBER OF PRIMITIVE AOS:         322
 NUMBER OF SYMMETRY AOS:          282
 NUMBER OF CONTRACTIONS:          230   ( 230A   )
 NUMBER OF CORE ORBITALS:           4   (   4A   )
 NUMBER OF VALENCE ORBITALS:       18   (  18A   )


 NUCLEAR REPULSION ENERGY   96.95786074


 Eigenvalues of metric

         1 0.313E-03 0.352E-03 0.361E-03 0.368E-03 0.860E-03 0.886E-03 0.147E-02 0.160E-02


 Contracted 2-electron integrals neglected if value below      1.0D-11
 AO integral compression algorithm  1   Integral accuracy      1.0D-11

     1106.772 MB (compressed) written to integral file ( 33.7%)

     Node minimum: 358.875 MB, node maximum: 378.012 MB


 NUMBER OF SORTED TWO-ELECTRON INTEGRALS:  117629820.     BUFFER LENGTH:  32768
 NUMBER OF SEGMENTS:   8  SEGMENT LENGTH:   15997437      RECORD LENGTH: 524288

 Memory used in sort:      16.55 MW

 SORT1 READ   410697961. AND WROTE    87742590. INTEGRALS IN    256 RECORDS. CPU TIME:     5.01 SEC, REAL TIME:     5.79 SEC
 SORT2 READ   262414079. AND WROTE   352862895. INTEGRALS IN   4107 RECORDS. CPU TIME:     1.64 SEC, REAL TIME:     2.32 SEC

 Node minimum:   117612110.  Node maximum:   117629820. integrals

 OPERATOR DM      FOR CENTER  0  COORDINATES:    0.000000    0.000000    0.000000


 **********************************************************************************************************************************
 DATASETS  * FILE   NREC   LENGTH (MB)   RECORD NAMES
              1      18        4.62       500      610      700      900      950      970     1000      129      960     1100   
                                          VAR    BASINP    GEOM    SYMINP    ZMAT    AOBASIS   BASIS     P2S    ABASIS      S 
                                         1400     1410     1200     1210     1080     1600     1650     1700   
                                           T        V       H0       H01     AOSYM     SMH    MOLCAS    OPER   

 PROGRAMS   *        TOTAL       INT
 CPU TIMES  *        11.33     11.26
 REAL TIME  *        13.04 SEC
 DISK USED  *         4.21 GB      
 GA USED    *         0.00 MB       (max)       0.00 MB       (current)
 **********************************************************************************************************************************

1PROGRAM * RHF-SCF (CLOSED SHELL)       Authors: W. Meyer, H.-J. Werner


 NUMBER OF ELECTRONS:      16+   16-    SPACE SYMMETRY=1    SPIN SYMMETRY=Singlet 
 CONVERGENCE THRESHOLDS:    1.00E-05 (Density)    1.00E-07 (Energy)
 MAX. NUMBER OF ITERATIONS:       60
 INTERPOLATION TYPE:            DIIS
 INTERPOLATION STEPS:              2 (START)      1 (STEP)
 LEVEL SHIFTS:                  0.00 (CLOSED)  0.00 (OPEN) 



 Orbital guess generated from atomic densities. Full valence occupancy:   22

 Molecular orbital dump at record        2100.2

 ITERATION    DDIFF          GRAD             ENERGY        2-EL.EN.            DIPOLE MOMENTS         DIIS
    1      0.000D+00      0.000D+00      -263.65969010    390.038449    1.12613   -0.16286    0.31508    0
    2      0.000D+00      0.469D-02      -263.72502528    385.207072    0.67512    0.01880    0.18709    1
    3      0.752D-02      0.319D-02      -263.76863641    387.833374    0.79059   -0.05434    0.21749    2
    4      0.310D-02      0.299D-03      -263.76912712    387.620727    0.79264   -0.04058    0.21831    3
    5      0.360D-03      0.908D-04      -263.76918595    387.622621    0.78824   -0.04933    0.21689    4
    6      0.137D-03      0.387D-04      -263.76919423    387.635391    0.78857   -0.04390    0.21698    5
    7      0.465D-04      0.107D-04      -263.76919513    387.629494    0.78834   -0.04574    0.21692    6
    8      0.165D-04      0.377D-05      -263.76919523    387.628501    0.78823   -0.04503    0.21688    7
    9      0.484D-05      0.168D-05      -263.76919524    387.629443    0.78825   -0.04528    0.21689    0

 Final occupancy:  16

 !RHF STATE 1.1 Energy               -263.769195235999
 Nuclear energy                        96.95786074
 One-electron energy                 -554.54177724
 Two-electron energy                  193.81472127
 Virial quotient                       -1.00171722
 !RHF STATE 1.1 Dipole moment           0.78825197    -0.04527918     0.21689106
 Dipole moment /Debye                   2.00340544    -0.11508066     0.55124598

 Orbital energies:

         1.1          2.1          3.1          4.1          5.1          6.1          7.1          8.1          9.1         10.1
    -20.642204   -20.639975   -20.568651   -11.449074    -1.520609    -1.467322    -1.354627    -0.789358    -0.732024    -0.720490

        11.1         12.1         13.1         14.1         15.1         16.1         17.1         18.1
     -0.704597    -0.704321    -0.585335    -0.533210    -0.532632    -0.511735     0.026806     0.046133


 **********************************************************************************************************************************
 DATASETS  * FILE   NREC   LENGTH (MB)   RECORD NAMES
              1      18        4.62       500      610      700      900      950      970     1000      129      960     1100   
                                          VAR    BASINP    GEOM    SYMINP    ZMAT    AOBASIS   BASIS     P2S    ABASIS      S 
                                         1400     1410     1200     1210     1080     1600     1650     1700   
                                           T        V       H0       H01     AOSYM     SMH    MOLCAS    OPER   

              2       3        1.44       700     1000     2100   
                                         GEOM     BASIS     RHF  

 PROGRAMS   *        TOTAL        HF       INT
 CPU TIMES  *        22.73     11.40     11.26
 REAL TIME  *        24.94 SEC
 DISK USED  *         4.24 GB      
 SF USED    *         0.21 MB      
 GA USED    *         0.00 MB       (max)       0.00 MB       (current)
 **********************************************************************************************************************************


1PROGRAM * CCSD (Closed-shell coupled cluster)     Authors: C. Hampel, H.-J. Werner, 1991, M. Deegan, P.J. Knowles, 1992

                                  CCSD-F12 implementation by  H.-J. Werner, 2007

                   Density fitting integral evaluation by F.R. Manby, 2003,2007, G. Knizia, 2010

 Basis set CC-PVTZ/JKFIT generated.      Number of basis functions:   376 
 Basis set AUG-CC-PVTZ/MP2FIT generated. Number of basis functions:   516 

 Convergence thresholds:  THRVAR = 1.00D-08  THRDEN = 1.00D-06

 CCSD(T)     terms to be evaluated (factor= 1.000)


 Number of core orbitals:           4 (   4 )
 Number of closed-shell orbitals:  12 (  12 )
 Number of external orbitals:     214 ( 214 )

 Molecular orbitals read from record     2100.2  Type=RHF/CANONICAL (state 1.1)

 MP2-F12 correlation treatment (H.-J. Werner, 2006)
 --------------------------------------------------

 Using MP2-F12 with ansatz 3C(FIX)

 Using projected zeroth-order Hamiltonian (+Z)

 FOCKRIB=T FOCKRIC=T FOCKRIP=T CABSP=T CABSA=T CABSK=T CABSF=T GBC=F EBC=F DMAT=T NOFIK=T NOPAO=1 SOLVE=-1  USEPAO=0
 EXCH_A= T EXCH_B= F EXCH_C= F EXCH_P= F
 
 Geminal basis:    OPTFULL  GEM_TYPE=SLATER  BETA=1.0  NGEM=6

 Optimizing Gaussian exponents for each gem_beta

 Geminal optimization for beta= 1.0000
 Weight function:   m=0, omega= 1.4646

 Augmented Hessian optimization of geminal fit. Trust ratio= 0.40000
 Convergence reached after   2 iterations. Final gradient= 8.24D-16, Step= 4.32D-06, Delta= 1.28D-09
 
 Alpha:                 0.19532     0.81920     2.85917     9.50073    35.69989   197.79328
 Coeff:                 0.27070     0.30552     0.18297     0.10986     0.06810     0.04224
 

 All pairs explicitly correlated. Number of r12-pairs:           78
 
 AO(A)-basis ORBITAL           loaded. Number of functions:     230
 RI(R)-basis CC-PVTZ/JKFIT     loaded. Number of functions:     376
 DF-basis CC-PVTZ/JKFIT        loaded. Number of functions:     376

 Screening thresholds:   THRAO=  1.00D-10  THRMO=  1.00D-09  THRPROD=  1.00D-09
                         THRSW=  1.00D-05  THROV=  1.00D-12  THRF12=   1.00D-08

 CPU time for Fock operators                      0.93 sec
 
 Construction of ABS:
 Smallest eigenvalue of S          2.53E-04  (threshold= 1.00E-08)
 Ratio eigmin/eigmax               1.80E-06  (threshold= 1.00E-09)
 Smallest eigenvalue of S kept     2.53E-04  (threshold= 2.53E-04, 0 functions deleted, 376 kept)
 
 Construction of CABS:
 Smallest eigenvalue of S          2.25E-08  (threshold= 1.00E-08)
 Ratio eigmin/eigmax               2.25E-08  (threshold= 1.00E-09)
 Smallest eigenvalue of S kept     2.25E-08  (threshold= 2.25E-08, 0 functions deleted, 376 kept)
 
 CPU time for CABS singles                        0.16 sec

 CABS-singles contribution of  -0.01595800 patched into reference energy.
 New reference energy        -263.78515323
 
 AO(A)-basis ORBITAL           loaded. Number of functions:     230
 RI(R)-basis CC-PVTZ/JKFIT     loaded. Number of functions:     376
 DF-basis AUG-CC-PVTZ/MP2FIT   loaded. Number of functions:     516

 Screening thresholds:   THRAO=  1.00D-10  THRMO=  1.00D-09  THRPROD=  1.00D-09
                         THRSW=  1.00D-05  THROV=  1.00D-12  THRF12=   1.00D-08

 CPU time for 3-index integral evaluation         2.76 sec
 CPU time for first  half transformation          0.28 sec ( 9970.7 MFLOP/sec)
 CPU time for second half transformation          0.01 sec (11234.3 MFLOP/sec)
 CPU time for sorting                             0.14 sec
 CPU time for fitting                             0.04 sec (34826.3 MFLOP/sec)
 CPU time for tilde quantities                    0.07 sec (26412.6 MFLOP/sec)
 CPU time for assembly                            0.74 sec (31315.3 MFLOP/sec)
 CPU time for tranop_f12                          0.83 sec (35908.7 MFLOP/sec)
 CPU time for f12 integrals (total)               6.91 sec
 F12-matrices built in  3 passes.
 F12-matrices built in  3 passes.
 F12-matrices built in  3 passes.
 F12-matrices built in  3 passes.
 FC-matrix built in  3 passes.
 CPU time for f12 matrices (total)                0.48 sec

 Diagonal F12 approximation with fixed coefficients:  TSING= 0.500,  TTRIP= 0.250 (scaled by -1/beta)

 DF-MP2-F12 energy corrections:
 ------------------------------
 Approx.                                    Singlet             Triplet             Total
 DF-MP2-F12/3*C(DX,FIX)                -0.097434456914     -0.016958607302     -0.114393064216
 DF-MP2-F12/3*C(FIX)                   -0.079837731721     -0.013425060021     -0.093262791742
 DF-MP2-F12/3C(FIX)                    -0.080203357024     -0.013453428055     -0.093656785079

 DF-MP2-F12 correlation energies:
 --------------------------------
 Approx.                                    Singlet             Triplet             Ecorr            Total Energy
 DF-MP2                                -0.537714647284     -0.343443744377     -0.881158391661   -264.666311625620
 DF-MP2-F12/3*C(DX,FIX)                -0.635149104198     -0.360402351679     -0.995551455877   -264.780704689836
 DF-MP2-F12/3*C(FIX)                   -0.617552379005     -0.356868804398     -0.974421183403   -264.759574417363
 DF-MP2-F12/3C(FIX)                    -0.617918004308     -0.356897172432     -0.974815176740   -264.759968410700

 SCS-DF-MP2 energies (F_SING= 1.20000  F_TRIP= 0.62222  F_PARALLEL= 0.33333):
 ----------------------------------------------------------------------------
 SCS-DF-MP2                            -0.858955906576   -264.644109140535
 SCS-DF-MP2-F12/3*C(DX,FIX)            -0.986429277193   -264.771582511153
 SCS-DF-MP2-F12/3*C(FIX)               -0.963114555321   -264.748267789280
 SCS-DF-MP2-F12/3C(FIX)                -0.963570956905   -264.748724190865
 Symmetry transformation completed.

 Number of N-1 electron functions:              12
 Number of N-2 electron functions:              78
 Number of singly external CSFs:              2568
 Number of doubly external CSFs:           3298596
 Total number of CSFs:                     3301165

 Pair and operator lists are different

 Length of J-op  integral file:             474.22 MB
 Length of K-op  integral file:             572.29 MB
 Length of 3-ext integral record:             0.00 MB

 For full I/O caching in triples, increase memory by 50.81 Mwords to 151.09 Mwords.

 Integral transformation finished. Total CPU:  12.67 sec, npass=  1  Memory used:  87.46 MW

 Reference energy:                   -263.78515323

 Adding F12 terms to K(Cij), methodcc=6,  factor=1.0

 ITER.      SQ.NORM     CORR.ENERGY   TOTAL ENERGY   ENERGY CHANGE        DEN1      VAR(S)    VAR(P)  DIIS     TIME
   1      1.20204782    -0.86311459  -264.64826783     0.01805850     0.04660177  0.71D-02  0.55D-02  1  1    30.14
   2      1.21632899    -0.85891188  -264.64406511     0.00420272    -0.02011677  0.85D-04  0.59D-03  2  2    39.15
   3      1.22164961    -0.85900684  -264.64416008    -0.00009497    -0.00234704  0.13D-03  0.32D-04  3  3    47.86
   4      1.22443042    -0.85888009  -264.64403332     0.00012676    -0.00140415  0.75D-05  0.41D-05  4  4    56.53
   5      1.22544839    -0.85884289  -264.64399613     0.00003719    -0.00036253  0.55D-06  0.28D-06  5  5    65.22
   6      1.22560883    -0.85881637  -264.64396961     0.00002652    -0.00000786  0.40D-07  0.24D-07  6  6    73.93
   7      1.22563813    -0.85881396  -264.64396720     0.00000241    -0.00000619  0.28D-08  0.41D-08  6  4    82.90
   8      1.22563674    -0.85881381  -264.64396705     0.00000015     0.00000324  0.55D-09  0.32D-09  6  3    92.15
   9      1.22563950    -0.85881347  -264.64396671     0.00000034    -0.00000101  0.42D-10  0.26D-10  6  1   101.82

 Norm of t1 vector:      0.10558448      S-energy:     0.00000192      T1 diagnostic:  0.01523981
                                                                       D1 diagnostic:  0.04475099

 Adding energy correction from Wij-K(Fij), methodcc=6  factor=1.0
 
  CCSD correlation energy              -0.858813472948
  MP2-F12 correction (uncoupled)       -0.092500715128
  C*T doubles correction               -0.001473003054
  f12b correction                       0.015404732310


 Total CPU time for triples:    217.61 sec


 RESULTS
 =======

  Reference energy                   -263.769195235999
  F12 singles correction               -0.015957997961

 F12 singles corrections added to reference energy

  New reference energy               -263.785153233960

  F12a singlet correction              -0.080404125901
  F12a triplet correction              -0.013569592282
  F12a total correction                -0.093973718182

 F12a corrections for ansatz F12/3C(FIX) added to CCSD energy
 
  CCSD-F12a singlet pair energy        -0.641782395613
  CCSD-F12a triplet pair energy        -0.311006716104
  CCSD-F12a correlation energy         -0.952787191130

  Triples (T) contribution             -0.037678229269
  Total correlation energy             -0.990465420400

  CCSD-F12a total energy             -264.737940425090
  CCSD[T]-F12a energy                -264.778149071749
  CCSD-T-F12a energy                 -264.774685122192
 !CCSD(T)-F12a total energy          -264.775618654359

 F12b corrections for ansatz F12/3C(FIX) added to CCSD(T)-F12a energy

  CCSD-F12b singlet pair energy        -0.627603969225
  CCSD-F12b triplet pair energy        -0.309780410182
  CCSD-F12b correlation energy         -0.937382458820

  Triples (T) contribution             -0.037678229269
  Total correlation energy             -0.975060688089

  CCSD-F12b total energy             -264.722535692780
  CCSD[T]-F12b energy                -264.762744339438
  CCSD-T-F12b energy                 -264.759280389882
 !CCSD(T)-F12b total energy          -264.760213922049

 Timing summary (sec):

 STEP                 CPU(USER)    SYS     CPU(TOT)    WALL
 Transformation         12.78      1.02     13.80     13.78
 CCSD iterations        80.08      3.37     83.45     83.93
 Triples               217.61      2.86    220.47    220.36
 MP2-F12                 8.98      1.13     10.11     10.11
 F12b energy             6.52      0.10      6.62      6.62

 Program statistics:

 Available memory in ccsd:                99998934
 Min. memory needed in ccsd:               8644845
 Max. memory used in ccsd:                11598633
 Max. memory used in cckext:               8768967 (10 integral passes)



 **********************************************************************************************************************************
 DATASETS  * FILE   NREC   LENGTH (MB)   RECORD NAMES
              1      20      527.84       500      610      700      900      950      970     1000      129      960     1100   
                                          VAR    BASINP    GEOM    SYMINP    ZMAT    AOBASIS   BASIS     P2S    ABASIS      S 
                                         1400     1410     1200     1210     1080     1600     1650     1700      960(1)  1380   
                                           T        V       H0       H01     AOSYM     SMH    MOLCAS    OPER    ABASIS    JKOP   

              2       5        2.50       700     1000     2100     7360     7350   
                                         GEOM     BASIS     RHF    F12ABS    EF12   

 PROGRAMS   *        TOTAL   CCSD(T)        HF       INT
 CPU TIMES  *       348.80    326.07     11.40     11.26
 REAL TIME  *       360.11 SEC
 DISK USED  *         5.11 GB      
 SF USED    *         1.91 GB      
 GA USED    *         2.40 MB       (max)       0.00 MB       (current)
 **********************************************************************************************************************************

     CCSD(T)-F12        HF-SCF  
   -264.76021392   -263.76919524
 **********************************************************************************************************************************
 Variable memory released
