
 Primary working directories    : /scratch/kee
 Secondary working directories  : /scratch/kee
 Wavefunction directory         : /home/kee/wfu/
 Main file repository           : /scratch/kee/

 ARCHNAME  : Linux/x86_64
 FC        : /opt/intel/composer_xe_2015.0.090/bin/intel64/ifort
 FCVERSION : 15.0.0
 BLASLIB   : -L/opt/intel/mkl/lib/intel64 -lmkl_intel_ilp64 -lmkl_sequential -lmkl_core
 id        : emory

 Nodes     nprocs
 node23       3
 Number of processes for MPI-2 version of Molpro:   nprocs(total)=    4   nprocs(compute)=    3   nprocs(helper)=    1
 ga_uses_ma=false, calling ma_init with nominal heap.
 GA-space will be limited to   8.0 MW (determined by -G option)

 Using customized tuning parameters: mindgm=7; mindgv=32; mindgc=1; mindgr=1; noblas=0; mincuda=1000; minvec=7
 default implementation of scratch files=sf  

 ***,co2h2o
 memory,100,m
 basis avtz
 geomtype = xyz
 geometry = {
 6
       0.00000000
 O     0.00032100    1.15989800    0.00000000
 O     0.00041400   -1.15989400    0.00000000
 O     2.85723239    2.08520005    0.74795977
 H     3.64878690    2.39415570    0.30561113
 H     3.17121820    1.60657230    1.51608200
 C     0.01953800    0.00000300    0.00000000
 }
 hf
 ccsd(t)-f12
 ---

 Variables initialized (665), CPU time= 0.01 sec
 Commands  initialized (462), CPU time= 0.01 sec, 486 directives.
 Default parameters read. Elapsed time= 0.03 sec

 Checking input...
 Passed
1


                                         ***  PROGRAM SYSTEM MOLPRO  ***
                         Copyright, University College Cardiff Consultants Limited, 2008

                                    Version 2010.1 linked 9 Dec 2014 15:06:28 


 **********************************************************************************************************************************
 LABEL *   co2h2o                                                                        
 Linux-2.6.32-504.el6.x86_64/node23(x86_64) 64 bit mpp version                           DATE: 15-Dec-16          TIME: 00:45:52  
 **********************************************************************************************************************************

 Patch level:      19
 **********************************************************************************************************************************

 Variable memory set to  100000000 words,  buffer space   230000 words

 SETTING BASIS          =    AVTZ
 SETTING GEOMTYPE       =    XYZ

Geometry recognized as XYZ



 Recomputing integrals since basis changed


 Using spherical harmonics

 Library entry O      S aug-cc-pVTZ          selected for orbital group  1
 Library entry O      P aug-cc-pVTZ          selected for orbital group  1
 Library entry O      D aug-cc-pVTZ          selected for orbital group  1
 Library entry O      F aug-cc-pVTZ          selected for orbital group  1
 Library entry H      S aug-cc-pVTZ          selected for orbital group  2
 Library entry H      P aug-cc-pVTZ          selected for orbital group  2
 Library entry H      D aug-cc-pVTZ          selected for orbital group  2
 Library entry C      S aug-cc-pVTZ          selected for orbital group  3
 Library entry C      P aug-cc-pVTZ          selected for orbital group  3
 Library entry C      D aug-cc-pVTZ          selected for orbital group  3
 Library entry C      F aug-cc-pVTZ          selected for orbital group  3

1PROGRAM * SEWARD (Integral evaluation for generally contracted gaussian basis sets)     Author: Roland Lindh, 1990

 Geometry written to block  1 of record 700


 Point group  C1  



 ATOMIC COORDINATES

 NR  ATOM    CHARGE       X              Y              Z

   1  O       8.00    0.000606602    2.191889560    0.000000000
   2  O       8.00    0.000782347   -2.191882001    0.000000000
   3  O       8.00    5.399386711    3.940457024    1.413439123
   4  H       1.00    6.895207953    4.524298589    0.577521338
   5  H       1.00    5.992733901    3.035981657    2.864979773
   6  C       6.00    0.036921469    0.000005669    0.000000000

 Bond lengths in Bohr (Angstrom)

 1-6  2.192184701  2-6  2.192185575  3-4  1.810279178  3-5  1.810278110
     (1.160054182)     (1.160054644)     (0.957958483)     (0.957957918)

 Bond angles

  1-6-2  178.10622893   4-3-5  105.10354968

 NUCLEAR CHARGE:                   32
 NUMBER OF PRIMITIVE AOS:         322
 NUMBER OF SYMMETRY AOS:          282
 NUMBER OF CONTRACTIONS:          230   ( 230A   )
 NUMBER OF CORE ORBITALS:           4   (   4A   )
 NUMBER OF VALENCE ORBITALS:       18   (  18A   )


 NUCLEAR REPULSION ENERGY   98.91562317


 Eigenvalues of metric

         1 0.300E-03 0.340E-03 0.354E-03 0.359E-03 0.836E-03 0.881E-03 0.136E-02 0.157E-02


 Contracted 2-electron integrals neglected if value below      1.0D-11
 AO integral compression algorithm  1   Integral accuracy      1.0D-11

     1168.114 MB (compressed) written to integral file ( 35.6%)

     Node minimum: 374.079 MB, node maximum: 397.935 MB


 NUMBER OF SORTED TWO-ELECTRON INTEGRALS:  117629820.     BUFFER LENGTH:  32768
 NUMBER OF SEGMENTS:   8  SEGMENT LENGTH:   15997437      RECORD LENGTH: 524288

 Memory used in sort:      16.55 MW

 SORT1 READ   410697961. AND WROTE    91473356. INTEGRALS IN    265 RECORDS. CPU TIME:     5.20 SEC, REAL TIME:     6.08 SEC
 SORT2 READ   273641380. AND WROTE   352862895. INTEGRALS IN   4533 RECORDS. CPU TIME:     1.68 SEC, REAL TIME:     2.40 SEC

 Node minimum:   117612110.  Node maximum:   117629820. integrals

 OPERATOR DM      FOR CENTER  0  COORDINATES:    0.000000    0.000000    0.000000


 **********************************************************************************************************************************
 DATASETS  * FILE   NREC   LENGTH (MB)   RECORD NAMES
              1      18        4.62       500      610      700      900      950      970     1000      129      960     1100   
                                          VAR    BASINP    GEOM    SYMINP    ZMAT    AOBASIS   BASIS     P2S    ABASIS      S 
                                         1400     1410     1200     1210     1080     1600     1650     1700   
                                           T        V       H0       H01     AOSYM     SMH    MOLCAS    OPER   

 PROGRAMS   *        TOTAL       INT
 CPU TIMES  *        11.66     11.59
 REAL TIME  *        13.53 SEC
 DISK USED  *         4.40 GB      
 GA USED    *         0.00 MB       (max)       0.00 MB       (current)
 **********************************************************************************************************************************

1PROGRAM * RHF-SCF (CLOSED SHELL)       Authors: W. Meyer, H.-J. Werner


 NUMBER OF ELECTRONS:      16+   16-    SPACE SYMMETRY=1    SPIN SYMMETRY=Singlet 
 CONVERGENCE THRESHOLDS:    1.00E-05 (Density)    1.00E-07 (Energy)
 MAX. NUMBER OF ITERATIONS:       60
 INTERPOLATION TYPE:            DIIS
 INTERPOLATION STEPS:              2 (START)      1 (STEP)
 LEVEL SHIFTS:                  0.00 (CLOSED)  0.00 (OPEN) 



 Orbital guess generated from atomic densities. Full valence occupancy:   22

 Molecular orbital dump at record        2100.2

 ITERATION    DDIFF          GRAD             ENERGY        2-EL.EN.            DIPOLE MOMENTS         DIIS
    1      0.000D+00      0.000D+00      -263.65886470    394.063891    1.12667   -0.16187    0.31512    0
    2      0.000D+00      0.470D-02      -263.72419556    389.174054    0.68210    0.04406    0.18699    1
    3      0.753D-02      0.320D-02      -263.76806085    391.817211    0.79634   -0.04237    0.21742    2
    4      0.310D-02      0.300D-03      -263.76855291    391.605448    0.79803   -0.02555    0.21811    3
    5      0.362D-03      0.932D-04      -263.76861307    391.606528    0.79379   -0.03629    0.21670    4
    6      0.139D-03      0.404D-04      -263.76862200    391.618997    0.79401   -0.02998    0.21675    5
    7      0.478D-04      0.112D-04      -263.76862296    391.613669    0.79382   -0.03190    0.21669    6
    8      0.170D-04      0.389D-05      -263.76862306    391.612362    0.79369   -0.03122    0.21665    7
    9      0.498D-05      0.164D-05      -263.76862307    391.613349    0.79372   -0.03143    0.21666    0

 Final occupancy:  16

 !RHF STATE 1.1 Energy               -263.768623074413
 Nuclear energy                        98.91562317
 One-electron energy                 -558.49092079
 Two-electron energy                  195.80667454
 Virial quotient                       -1.00169589
 !RHF STATE 1.1 Dipole moment           0.79371681    -0.03143322     0.21666271
 Dipole moment /Debye                   2.01729478    -0.07989003     0.55066561

 Orbital energies:

         1.1          2.1          3.1          4.1          5.1          6.1          7.1          8.1          9.1         10.1
    -20.640655   -20.637837   -20.568885   -11.447238    -1.518873    -1.465523    -1.355124    -0.787694    -0.730310    -0.721055

        11.1         12.1         13.1         14.1         15.1         16.1         17.1         18.1
     -0.702895    -0.702704    -0.586079    -0.531490    -0.530525    -0.511897     0.026489     0.046172


 **********************************************************************************************************************************
 DATASETS  * FILE   NREC   LENGTH (MB)   RECORD NAMES
              1      18        4.62       500      610      700      900      950      970     1000      129      960     1100   
                                          VAR    BASINP    GEOM    SYMINP    ZMAT    AOBASIS   BASIS     P2S    ABASIS      S 
                                         1400     1410     1200     1210     1080     1600     1650     1700   
                                           T        V       H0       H01     AOSYM     SMH    MOLCAS    OPER   

              2       3        1.44       700     1000     2100   
                                         GEOM     BASIS     RHF  

 PROGRAMS   *        TOTAL        HF       INT
 CPU TIMES  *        23.16     11.50     11.59
 REAL TIME  *        25.61 SEC
 DISK USED  *         4.44 GB      
 SF USED    *         0.21 MB      
 GA USED    *         0.00 MB       (max)       0.00 MB       (current)
 **********************************************************************************************************************************


1PROGRAM * CCSD (Closed-shell coupled cluster)     Authors: C. Hampel, H.-J. Werner, 1991, M. Deegan, P.J. Knowles, 1992

                                  CCSD-F12 implementation by  H.-J. Werner, 2007

                   Density fitting integral evaluation by F.R. Manby, 2003,2007, G. Knizia, 2010

 Basis set CC-PVTZ/JKFIT generated.      Number of basis functions:   376 
 Basis set AUG-CC-PVTZ/MP2FIT generated. Number of basis functions:   516 

 Convergence thresholds:  THRVAR = 1.00D-08  THRDEN = 1.00D-06

 CCSD(T)     terms to be evaluated (factor= 1.000)


 Number of core orbitals:           4 (   4 )
 Number of closed-shell orbitals:  12 (  12 )
 Number of external orbitals:     214 ( 214 )

 Molecular orbitals read from record     2100.2  Type=RHF/CANONICAL (state 1.1)

 MP2-F12 correlation treatment (H.-J. Werner, 2006)
 --------------------------------------------------

 Using MP2-F12 with ansatz 3C(FIX)

 Using projected zeroth-order Hamiltonian (+Z)

 FOCKRIB=T FOCKRIC=T FOCKRIP=T CABSP=T CABSA=T CABSK=T CABSF=T GBC=F EBC=F DMAT=T NOFIK=T NOPAO=1 SOLVE=-1  USEPAO=0
 EXCH_A= T EXCH_B= F EXCH_C= F EXCH_P= F
 
 Geminal basis:    OPTFULL  GEM_TYPE=SLATER  BETA=1.0  NGEM=6

 Optimizing Gaussian exponents for each gem_beta

 Geminal optimization for beta= 1.0000
 Weight function:   m=0, omega= 1.4646

 Augmented Hessian optimization of geminal fit. Trust ratio= 0.40000
 Convergence reached after   2 iterations. Final gradient= 8.24D-16, Step= 4.32D-06, Delta= 1.28D-09
 
 Alpha:                 0.19532     0.81920     2.85917     9.50073    35.69989   197.79328
 Coeff:                 0.27070     0.30552     0.18297     0.10986     0.06810     0.04224
 

 All pairs explicitly correlated. Number of r12-pairs:           78
 
 AO(A)-basis ORBITAL           loaded. Number of functions:     230
 RI(R)-basis CC-PVTZ/JKFIT     loaded. Number of functions:     376
 DF-basis CC-PVTZ/JKFIT        loaded. Number of functions:     376

 Screening thresholds:   THRAO=  1.00D-10  THRMO=  1.00D-09  THRPROD=  1.00D-09
                         THRSW=  1.00D-05  THROV=  1.00D-12  THRF12=   1.00D-08

 CPU time for Fock operators                      0.95 sec
 
 Construction of ABS:
 Smallest eigenvalue of S          2.49E-04  (threshold= 1.00E-08)
 Ratio eigmin/eigmax               1.78E-06  (threshold= 1.00E-09)
 Smallest eigenvalue of S kept     2.49E-04  (threshold= 2.49E-04, 0 functions deleted, 376 kept)
 
 Construction of CABS:
 Smallest eigenvalue of S          2.23E-08  (threshold= 1.00E-08)
 Ratio eigmin/eigmax               2.23E-08  (threshold= 1.00E-09)
 Smallest eigenvalue of S kept     2.23E-08  (threshold= 2.23E-08, 0 functions deleted, 376 kept)
 
 CPU time for CABS singles                        0.15 sec

 CABS-singles contribution of  -0.01594677 patched into reference energy.
 New reference energy        -263.78456985
 
 AO(A)-basis ORBITAL           loaded. Number of functions:     230
 RI(R)-basis CC-PVTZ/JKFIT     loaded. Number of functions:     376
 DF-basis AUG-CC-PVTZ/MP2FIT   loaded. Number of functions:     516

 Screening thresholds:   THRAO=  1.00D-10  THRMO=  1.00D-09  THRPROD=  1.00D-09
                         THRSW=  1.00D-05  THROV=  1.00D-12  THRF12=   1.00D-08

 CPU time for 3-index integral evaluation         2.94 sec
 CPU time for first  half transformation          0.23 sec (12282.2 MFLOP/sec)
 CPU time for second half transformation          0.03 sec ( 3350.3 MFLOP/sec)
 CPU time for sorting                             0.17 sec
 CPU time for fitting                             0.06 sec (23217.5 MFLOP/sec)
 CPU time for tilde quantities                    0.06 sec (30814.7 MFLOP/sec)
 CPU time for assembly                            0.80 sec (28940.5 MFLOP/sec)
 CPU time for tranop_f12                          0.88 sec (34157.7 MFLOP/sec)
 CPU time for f12 integrals (total)               7.18 sec
 F12-matrices built in  3 passes.
 F12-matrices built in  3 passes.
 F12-matrices built in  3 passes.
 F12-matrices built in  3 passes.
 FC-matrix built in  3 passes.
 CPU time for f12 matrices (total)                0.47 sec

 Diagonal F12 approximation with fixed coefficients:  TSING= 0.500,  TTRIP= 0.250 (scaled by -1/beta)

 DF-MP2-F12 energy corrections:
 ------------------------------
 Approx.                                    Singlet             Triplet             Total
 DF-MP2-F12/3*C(DX,FIX)                -0.097415406719     -0.016967651165     -0.114383057884
 DF-MP2-F12/3*C(FIX)                   -0.079813653702     -0.013435589515     -0.093249243217
 DF-MP2-F12/3C(FIX)                    -0.080181757713     -0.013466294330     -0.093648052043

 DF-MP2-F12 correlation energies:
 --------------------------------
 Approx.                                    Singlet             Triplet             Ecorr            Total Energy
 DF-MP2                                -0.537876811698     -0.343765798188     -0.881642609886   -264.666212456934
 DF-MP2-F12/3*C(DX,FIX)                -0.635292218418     -0.360733449352     -0.996025667770   -264.780595514818
 DF-MP2-F12/3*C(FIX)                   -0.617690465401     -0.357201387702     -0.974891853103   -264.759461700151
 DF-MP2-F12/3C(FIX)                    -0.618058569411     -0.357232092518     -0.975290661929   -264.759860508977

 SCS-DF-MP2 energies (F_SING= 1.20000  F_TRIP= 0.62222  F_PARALLEL= 0.33333):
 ----------------------------------------------------------------------------
 SCS-DF-MP2                            -0.859350892910   -264.643920739958
 SCS-DF-MP2-F12/3*C(DX,FIX)            -0.986807030587   -264.771376877635
 SCS-DF-MP2-F12/3*C(FIX)               -0.963487199718   -264.748057046766
 SCS-DF-MP2-F12/3C(FIX)                -0.963948029749   -264.748517876797
 Symmetry transformation completed.

 Number of N-1 electron functions:              12
 Number of N-2 electron functions:              78
 Number of singly external CSFs:              2568
 Number of doubly external CSFs:           3298596
 Total number of CSFs:                     3301165

 Pair and operator lists are different

 Length of J-op  integral file:             474.22 MB
 Length of K-op  integral file:             572.29 MB
 Length of 3-ext integral record:             0.00 MB

 For full I/O caching in triples, increase memory by 50.81 Mwords to 151.09 Mwords.

 Integral transformation finished. Total CPU:  12.73 sec, npass=  1  Memory used:  87.46 MW

 Reference energy:                   -263.78456985

 Adding F12 terms to K(Cij), methodcc=6,  factor=1.0

 ITER.      SQ.NORM     CORR.ENERGY   TOTAL ENERGY   ENERGY CHANGE        DEN1      VAR(S)    VAR(P)  DIIS     TIME
   1      1.20214640    -0.86353928  -264.64810913     0.01811748     0.04670030  0.72D-02  0.56D-02  1  1    30.70
   2      1.21645269    -0.85932699  -264.64389684     0.00421229    -0.02015154  0.85D-04  0.59D-03  2  2    39.35
   3      1.22177291    -0.85942250  -264.64399235    -0.00009551    -0.00234010  0.13D-03  0.32D-04  3  3    48.14
   4      1.22455762    -0.85929500  -264.64386485     0.00012750    -0.00140546  0.75D-05  0.41D-05  4  4    56.95
   5      1.22557776    -0.85925777  -264.64382762     0.00003723    -0.00036303  0.56D-06  0.28D-06  5  5    65.77
   6      1.22573862    -0.85923121  -264.64380105     0.00002656    -0.00000785  0.41D-07  0.24D-07  6  6    74.61
   7      1.22576815    -0.85922878  -264.64379862     0.00000243    -0.00000619  0.30D-08  0.41D-08  6  4    83.44
   8      1.22576888    -0.85922825  -264.64379810     0.00000052     0.00000178  0.44D-09  0.31D-09  6  1    92.29
   9      1.22576941    -0.85922833  -264.64379818    -0.00000008     0.00000063  0.39D-10  0.30D-10  6  2   101.14

 Norm of t1 vector:      0.10567685      S-energy:     0.00000178      T1 diagnostic:  0.01525314
                                                                       D1 diagnostic:  0.04482101

 Adding energy correction from Wij-K(Fij), methodcc=6  factor=1.0
 
  CCSD correlation energy              -0.859228331426
  MP2-F12 correction (uncoupled)       -0.092490897134
  C*T doubles correction               -0.001472976752
  f12b correction                       0.015407328577


 Total CPU time for triples:    199.90 sec


 RESULTS
 =======

  Reference energy                   -263.768623074413
  F12 singles correction               -0.015946772635

 F12 singles corrections added to reference energy

  New reference energy               -263.784569847048

  F12a singlet correction              -0.080382624911
  F12a triplet correction              -0.013581248976
  F12a total correction                -0.093963873886

 F12a corrections for ansatz F12/3C(FIX) added to CCSD energy
 
  CCSD-F12a singlet pair energy        -0.641878844052
  CCSD-F12a triplet pair energy        -0.311315143816
  CCSD-F12a correlation energy         -0.953192205313

  Triples (T) contribution             -0.037754434466
  Total correlation energy             -0.990946639779

  CCSD-F12a total energy             -264.737762052361
  CCSD[T]-F12a energy                -264.778052695205
  CCSD-T-F12a energy                 -264.774581451950
 !CCSD(T)-F12a total energy          -264.775516486827

 F12b corrections for ansatz F12/3C(FIX) added to CCSD(T)-F12a energy

  CCSD-F12b singlet pair energy        -0.627699647735
  CCSD-F12b triplet pair energy        -0.310087011556
  CCSD-F12b correlation energy         -0.937784876736

  Triples (T) contribution             -0.037754434466
  Total correlation energy             -0.975539311202

  CCSD-F12b total energy             -264.722354723784
  CCSD[T]-F12b energy                -264.762645366628
  CCSD-T-F12b energy                 -264.759174123373
 !CCSD(T)-F12b total energy          -264.760109158250

 Timing summary (sec):

 STEP                 CPU(USER)    SYS     CPU(TOT)    WALL
 Transformation         12.84      1.09     13.93     14.63
 CCSD iterations        78.99      3.12     82.11     84.70
 Triples               199.90      2.30    202.20    202.12
 MP2-F12                 9.32      1.16     10.48     10.57
 F12b energy             6.18      0.10      6.28      6.27

 Program statistics:

 Available memory in ccsd:                99998934
 Min. memory needed in ccsd:               8644845
 Max. memory used in ccsd:                11598633
 Max. memory used in cckext:               8768967 (10 integral passes)



 **********************************************************************************************************************************
 DATASETS  * FILE   NREC   LENGTH (MB)   RECORD NAMES
              1      20      527.84       500      610      700      900      950      970     1000      129      960     1100   
                                          VAR    BASINP    GEOM    SYMINP    ZMAT    AOBASIS   BASIS     P2S    ABASIS      S 
                                         1400     1410     1200     1210     1080     1600     1650     1700      960(1)  1380   
                                           T        V       H0       H01     AOSYM     SMH    MOLCAS    OPER    ABASIS    JKOP   

              2       5        2.50       700     1000     2100     7360     7350   
                                         GEOM     BASIS     RHF    F12ABS    EF12   

 PROGRAMS   *        TOTAL   CCSD(T)        HF       INT
 CPU TIMES  *       330.69    307.52     11.50     11.59
 REAL TIME  *       344.26 SEC
 DISK USED  *         5.30 GB      
 SF USED    *         1.91 GB      
 GA USED    *         2.40 MB       (max)       0.00 MB       (current)
 **********************************************************************************************************************************

     CCSD(T)-F12        HF-SCF  
   -264.76010916   -263.76862307
 **********************************************************************************************************************************
 Variable memory released
