
 Primary working directories    : /scratch/kee
 Secondary working directories  : /scratch/kee
 Wavefunction directory         : /home/kee/wfu/
 Main file repository           : /scratch/kee/

 ARCHNAME  : Linux/x86_64
 FC        : /opt/intel/composer_xe_2015.0.090/bin/intel64/ifort
 FCVERSION : 15.0.0
 BLASLIB   : -L/opt/intel/mkl/lib/intel64 -lmkl_intel_ilp64 -lmkl_sequential -lmkl_core
 id        : emory

 Nodes     nprocs
 node19       3
 Number of processes for MPI-2 version of Molpro:   nprocs(total)=    4   nprocs(compute)=    3   nprocs(helper)=    1
 ga_uses_ma=false, calling ma_init with nominal heap.
 GA-space will be limited to   8.0 MW (determined by -G option)

 Using customized tuning parameters: mindgm=7; mindgv=32; mindgc=1; mindgr=1; noblas=0; mincuda=1000; minvec=7
 default implementation of scratch files=sf  

 ***,co2h2o
 memory,100,m
 basis avtz
 geomtype = xyz
 geometry = {
 6
    -264.76489694
 O     0.82869278    1.16169550    0.00000000
 O     0.82658011   -1.16233555    0.00000000
 O    -6.79123423    0.00268050    0.00000000
 H    -7.37486724    0.76327515    0.00000000
 H    -7.37459913   -0.75812142    0.00000000
 C     0.80876519   -0.00029961    0.00000000
 }
 hf
 ccsd(t)-f12
 ---

 Variables initialized (665), CPU time= 0.01 sec
 Commands  initialized (462), CPU time= 0.01 sec, 486 directives.
 Default parameters read. Elapsed time= 0.05 sec

 Checking input...
 Passed
1


                                         ***  PROGRAM SYSTEM MOLPRO  ***
                         Copyright, University College Cardiff Consultants Limited, 2008

                                    Version 2010.1 linked 9 Dec 2014 15:06:28 


 **********************************************************************************************************************************
 LABEL *   co2h2o                                                                        
 Linux-2.6.32-504.el6.x86_64/node19(x86_64) 64 bit mpp version                           DATE: 11-Dec-16          TIME: 23:16:16  
 **********************************************************************************************************************************

 Patch level:      19
 **********************************************************************************************************************************

 Variable memory set to  100000000 words,  buffer space   230000 words

 SETTING BASIS          =    AVTZ
 SETTING GEOMTYPE       =    XYZ

Geometry recognized as XYZ



 Recomputing integrals since basis changed


 Using spherical harmonics

 Library entry O      S aug-cc-pVTZ          selected for orbital group  1
 Library entry O      P aug-cc-pVTZ          selected for orbital group  1
 Library entry O      D aug-cc-pVTZ          selected for orbital group  1
 Library entry O      F aug-cc-pVTZ          selected for orbital group  1
 Library entry H      S aug-cc-pVTZ          selected for orbital group  2
 Library entry H      P aug-cc-pVTZ          selected for orbital group  2
 Library entry H      D aug-cc-pVTZ          selected for orbital group  2
 Library entry C      S aug-cc-pVTZ          selected for orbital group  3
 Library entry C      P aug-cc-pVTZ          selected for orbital group  3
 Library entry C      D aug-cc-pVTZ          selected for orbital group  3
 Library entry C      F aug-cc-pVTZ          selected for orbital group  3

1PROGRAM * SEWARD (Integral evaluation for generally contracted gaussian basis sets)     Author: Roland Lindh, 1990

 Geometry written to block  1 of record 700


 Point group  Cs  



 ATOMIC COORDINATES

 NR  ATOM    CHARGE       X              Y              Z

   1  O       8.00    1.566002401    2.195286343    0.000000000
   2  O       8.00    1.562010034   -2.196495862    0.000000000
   3  O       8.00  -12.833572789    0.005065411    0.000000000
   4  H       1.00  -13.936479339    1.442380996    0.000000000
   5  H       1.00  -13.935972685   -1.432641858    0.000000000
   6  C       6.00    1.528344714   -0.000566181    0.000000000

 Bond lengths in Bohr (Angstrom)

 1-6  2.196175405  2-6  2.196187724  3-4  1.811706088  3-5  1.811708509
     (1.162165971)     (1.162172490)     (0.958713571)     (0.958714852)

 Bond angles

  1-6-2  178.13918425   4-3-5  105.01947441

 NUCLEAR CHARGE:                   32
 NUMBER OF PRIMITIVE AOS:         322
 NUMBER OF SYMMETRY AOS:          282
 NUMBER OF CONTRACTIONS:          230   ( 152A'  +  78A"  )
 NUMBER OF CORE ORBITALS:           4   (   4A'  +   0A"  )
 NUMBER OF VALENCE ORBITALS:       18   (  14A'  +   4A"  )


 NUCLEAR REPULSION ENERGY   82.40373797


 Eigenvalues of metric

         1 0.349E-03 0.373E-03 0.393E-03 0.411E-03 0.901E-03 0.922E-03 0.167E-02 0.175E-02
         2 0.318E-02 0.348E-02 0.594E-02 0.124E-01 0.136E-01 0.296E-01 0.296E-01 0.318E-01


 Contracted 2-electron integrals neglected if value below      1.0D-11
 AO integral compression algorithm  1   Integral accuracy      1.0D-11

     317.719 MB (compressed) written to integral file ( 23.9%)

     Node minimum: 97.518 MB, node maximum: 111.411 MB


 NUMBER OF SORTED TWO-ELECTRON INTEGRALS:   59950380.     BUFFER LENGTH:  32768
 NUMBER OF SEGMENTS:   4  SEGMENT LENGTH:   15995235      RECORD LENGTH: 524288

 Memory used in sort:      16.55 MW

 SORT1 READ   166050151. AND WROTE    22298312. INTEGRALS IN     65 RECORDS. CPU TIME:     1.85 SEC, REAL TIME:     2.11 SEC
 SORT2 READ    67039655. AND WROTE   179836431. INTEGRALS IN   1245 RECORDS. CPU TIME:     0.76 SEC, REAL TIME:     0.98 SEC

 Node minimum:    59940574.  Node maximum:    59950380. integrals

 OPERATOR DM      FOR CENTER  0  COORDINATES:    0.000000    0.000000    0.000000


 **********************************************************************************************************************************
 DATASETS  * FILE   NREC   LENGTH (MB)   RECORD NAMES
              1      18        3.74       500      610      700      900      950      970     1000      129      960     1100   
                                          VAR    BASINP    GEOM    SYMINP    ZMAT    AOBASIS   BASIS     P2S    ABASIS      S 
                                         1400     1410     1200     1210     1080     1600     1650     1700   
                                           T        V       H0       H01     AOSYM     SMH    MOLCAS    OPER   

 PROGRAMS   *        TOTAL       INT
 CPU TIMES  *         5.65      5.54
 REAL TIME  *         6.54 SEC
 DISK USED  *         1.11 GB      
 GA USED    *         0.00 MB       (max)       0.00 MB       (current)
 **********************************************************************************************************************************

1PROGRAM * RHF-SCF (CLOSED SHELL)       Authors: W. Meyer, H.-J. Werner


 NUMBER OF ELECTRONS:      16+   16-
 CONVERGENCE THRESHOLDS:    1.00E-05 (Density)    1.00E-07 (Energy)
 MAX. NUMBER OF ITERATIONS:       60
 INTERPOLATION TYPE:            DIIS
 INTERPOLATION STEPS:              2 (START)      1 (STEP)
 LEVEL SHIFTS:                  0.00 (CLOSED)  0.00 (OPEN) 



 Orbital guess generated from atomic densities. Full valence occupancy:   18   4

 Molecular orbital dump at record        2100.2

 Initial alpha occupancy:  13   3
 Initial beta  occupancy:  13   3
 Wave function symmetry:    1

 ITERATION    DDIFF          GRAD             ENERGY        2-EL.EN.            DIPOLE MOMENTS         DIIS
    1      0.000D+00      0.000D+00      -263.66050595    360.425081   -1.18420   -0.00012    0.00000    0
    2      0.000D+00      0.629D-02      -263.72573632    355.828021   -0.68842   -0.00010    0.00000    1
    3      0.101D-01      0.427D-02      -263.76900404    358.392594   -0.81189   -0.00009    0.00000    2
    4      0.415D-02      0.402D-03      -263.76949910    358.180761   -0.81520   -0.00010    0.00000    3
    5      0.485D-03      0.117D-03      -263.76955709    358.182833   -0.80980   -0.00009    0.00000    4
    6      0.181D-03      0.472D-04      -263.76956425    358.197316   -0.81048   -0.00009    0.00000    5
    7      0.603D-04      0.116D-04      -263.76956498    358.188960   -0.81003   -0.00009    0.00000    6
    8      0.197D-04      0.254D-05      -263.76956503    358.190260   -0.81004   -0.00009    0.00000    7
    9      0.541D-05      0.852D-06      -263.76956503    358.190068   -0.81001   -0.00009    0.00000    0

 Final occupancy:  13   3

 !RHF STATE 1.1 Energy               -263.769565033545
 Nuclear energy                        82.40373797
 One-electron energy                 -525.26833699
 Two-electron energy                  179.09503399
 Virial quotient                       -1.00182933
 !RHF STATE 1.1 Dipole moment          -0.81001019    -0.00009248     0.00000000
 Dipole moment /Debye                  -2.05870569    -0.00023503     0.00000000

 Orbital energies:

         1.1          2.1          3.1          4.1          5.1          6.1          7.1          8.1          9.1         10.1
    -20.649886   -20.649841   -20.567959   -11.458678    -1.527549    -1.474453    -1.353208    -0.797802    -0.740058    -0.718742

        11.1         12.1         13.1         14.1         15.1
     -0.711567    -0.584459    -0.541215     0.028308     0.047117

         1.2          2.2          3.2          4.2          5.2
     -0.711622    -0.541261    -0.510834     0.075984     0.157767


 **********************************************************************************************************************************
 DATASETS  * FILE   NREC   LENGTH (MB)   RECORD NAMES
              1      18        3.76       500      610      700      900      950      970     1000      129      960     1100   
                                          VAR    BASINP    GEOM    SYMINP    ZMAT    AOBASIS   BASIS     P2S    ABASIS      S 
                                         1400     1410     1200     1210     1080     1600     1650     1700   
                                           T        V       H0       H01     AOSYM     SMH    MOLCAS    OPER   

              2       3        0.96       700     1000     2100   
                                         GEOM     BASIS     RHF  

 PROGRAMS   *        TOTAL        HF       INT
 CPU TIMES  *         9.18      3.52      5.54
 REAL TIME  *        10.25 SEC
 DISK USED  *         1.13 GB      
 SF USED    *         0.12 MB      
 GA USED    *         0.00 MB       (max)       0.00 MB       (current)
 **********************************************************************************************************************************


1PROGRAM * CCSD (Closed-shell coupled cluster)     Authors: C. Hampel, H.-J. Werner, 1991, M. Deegan, P.J. Knowles, 1992

                                  CCSD-F12 implementation by  H.-J. Werner, 2007

                   Density fitting integral evaluation by F.R. Manby, 2003,2007, G. Knizia, 2010

 Basis set CC-PVTZ/JKFIT generated.      Number of basis functions:   376 
 Basis set AUG-CC-PVTZ/MP2FIT generated. Number of basis functions:   516 

 Convergence thresholds:  THRVAR = 1.00D-08  THRDEN = 1.00D-06

 CCSD(T)     terms to be evaluated (factor= 1.000)


 Number of core orbitals:           4 (   4   0 )
 Number of closed-shell orbitals:  12 (   9   3 )
 Number of external orbitals:     214 ( 139  75 )

 Molecular orbitals read from record     2100.2  Type=RHF/CANONICAL (state 1.1)

 MP2-F12 correlation treatment (H.-J. Werner, 2006)
 --------------------------------------------------

 Using MP2-F12 with ansatz 3C(FIX)

 Using projected zeroth-order Hamiltonian (+Z)

 FOCKRIB=T FOCKRIC=T FOCKRIP=T CABSP=T CABSA=T CABSK=T CABSF=T GBC=F EBC=F DMAT=T NOFIK=T NOPAO=1 SOLVE=-1  USEPAO=0
 EXCH_A= T EXCH_B= F EXCH_C= F EXCH_P= F
 
 Geminal basis:    OPTFULL  GEM_TYPE=SLATER  BETA=1.0  NGEM=6

 Optimizing Gaussian exponents for each gem_beta

 Geminal optimization for beta= 1.0000
 Weight function:   m=0, omega= 1.4646

 Augmented Hessian optimization of geminal fit. Trust ratio= 0.40000
 Convergence reached after   2 iterations. Final gradient= 8.24D-16, Step= 4.32D-06, Delta= 1.28D-09
 
 Alpha:                 0.19532     0.81920     2.85917     9.50073    35.69989   197.79328
 Coeff:                 0.27070     0.30552     0.18297     0.10986     0.06810     0.04224
 

 Symmetry turned off. Reference energy:       -263.769565033545

 All pairs explicitly correlated. Number of r12-pairs:           78
 
 AO(A)-basis ORBITAL           loaded. Number of functions:     230
 RI(R)-basis CC-PVTZ/JKFIT     loaded. Number of functions:     376
 DF-basis CC-PVTZ/JKFIT        loaded. Number of functions:     376

 Screening thresholds:   THRAO=  1.00D-10  THRMO=  1.00D-09  THRPROD=  1.00D-09
                         THRSW=  1.00D-05  THROV=  1.00D-12  THRF12=   1.00D-08

 CPU time for Fock operators                      0.99 sec
 
 Construction of ABS:
 Smallest eigenvalue of S          2.57E-04  (threshold= 1.00E-08)
 Ratio eigmin/eigmax               1.83E-06  (threshold= 1.00E-09)
 Smallest eigenvalue of S kept     2.57E-04  (threshold= 2.57E-04, 0 functions deleted, 376 kept)
 
 Construction of CABS:
 Smallest eigenvalue of S          2.30E-08  (threshold= 1.00E-08)
 Ratio eigmin/eigmax               2.30E-08  (threshold= 1.00E-09)
 Smallest eigenvalue of S kept     2.30E-08  (threshold= 2.30E-08, 0 functions deleted, 376 kept)
 
 CPU time for CABS singles                        0.18 sec

 CABS-singles contribution of  -0.01592366 patched into reference energy.
 New reference energy        -263.78548869
 
 AO(A)-basis ORBITAL           loaded. Number of functions:     230
 RI(R)-basis CC-PVTZ/JKFIT     loaded. Number of functions:     376
 DF-basis AUG-CC-PVTZ/MP2FIT   loaded. Number of functions:     516

 Screening thresholds:   THRAO=  1.00D-10  THRMO=  1.00D-09  THRPROD=  1.00D-09
                         THRSW=  1.00D-05  THROV=  1.00D-12  THRF12=   1.00D-08

 CPU time for 3-index integral evaluation         2.02 sec
 CPU time for first  half transformation          0.35 sec ( 6580.6 MFLOP/sec)
 CPU time for second half transformation          0.03 sec ( 3279.4 MFLOP/sec)
 CPU time for sorting                             0.16 sec
 CPU time for fitting                             0.06 sec (23217.5 MFLOP/sec)
 CPU time for tilde quantities                    0.06 sec (30814.7 MFLOP/sec)
 CPU time for assembly                            0.85 sec (27453.5 MFLOP/sec)
 CPU time for tranop_f12                          1.00 sec (30290.3 MFLOP/sec)
 CPU time for f12 integrals (total)               6.82 sec
 F12-matrices built in  3 passes.
 F12-matrices built in  3 passes.
 F12-matrices built in  3 passes.
 F12-matrices built in  3 passes.
 FC-matrix built in  3 passes.
 CPU time for f12 matrices (total)                0.66 sec

 Diagonal F12 approximation with fixed coefficients:  TSING= 0.500,  TTRIP= 0.250 (scaled by -1/beta)

 DF-MP2-F12 energy corrections:
 ------------------------------
 Approx.                                    Singlet             Triplet             Total
 DF-MP2-F12/3*C(DX,FIX)                -0.097452708733     -0.016934109223     -0.114386817956
 DF-MP2-F12/3*C(FIX)                   -0.079869015513     -0.013396202123     -0.093265217636
 DF-MP2-F12/3C(FIX)                    -0.080229695846     -0.013419336771     -0.093649032616

 DF-MP2-F12 correlation energies:
 --------------------------------
 Approx.                                    Singlet             Triplet             Ecorr            Total Energy
 DF-MP2                                -0.537716260623     -0.343063064859     -0.880779325482   -264.666268018972
 DF-MP2-F12/3*C(DX,FIX)                -0.635168969356     -0.359997174082     -0.995166143438   -264.780654836928
 DF-MP2-F12/3*C(FIX)                   -0.617585276136     -0.356459266982     -0.974044543118   -264.759533236609
 DF-MP2-F12/3C(FIX)                    -0.617945956468     -0.356482401630     -0.974428358098   -264.759917051589

 SCS-DF-MP2 energies (F_SING= 1.20000  F_TRIP= 0.62222  F_PARALLEL= 0.33333):
 ----------------------------------------------------------------------------
 SCS-DF-MP2                            -0.858720975326   -264.644209668817
 SCS-DF-MP2-F12/3*C(DX,FIX)            -0.986201004878   -264.771689698369
 SCS-DF-MP2-F12/3*C(FIX)               -0.962899208597   -264.748387902087
 SCS-DF-MP2-F12/3C(FIX)                -0.963346419887   -264.748835113378

 Symmetry restored.
 Symmetry transformation completed.

 Number of N-1 electron functions:              12
 Number of N-2 electron functions:              78
 Number of singly external CSFs:              1476
 Number of doubly external CSFs:           1686804
 Total number of CSFs:                     1688281

 Pair and operator lists are different

 Length of J-op  integral file:             466.42 MB
 Length of K-op  integral file:             526.62 MB
 Length of 3-ext integral record:             0.00 MB

 Memory could be reduced to 76.61 Mwords without degradation in triples

 Integral transformation finished. Total CPU:   5.49 sec, npass=  1  Memory used:  24.61 MW

 Reference energy:                   -263.78548869

 Adding F12 terms to K(Cij), methodcc=6,  factor=1.0

 ITER.      SQ.NORM     CORR.ENERGY   TOTAL ENERGY   ENERGY CHANGE        DEN1      VAR(S)    VAR(P)  DIIS     TIME
   1      1.20213902    -0.86273486  -264.64822356     0.01806095     0.04668879  0.72D-02  0.56D-02  1  1    17.68
   2      1.21644968    -0.85850908  -264.64399777     0.00422578    -0.02014996  0.86D-04  0.59D-03  2  2    20.69
   3      1.22180955    -0.85860538  -264.64409407    -0.00009629    -0.00236384  0.13D-03  0.32D-04  3  3    23.51
   4      1.22461105    -0.85847757  -264.64396626     0.00012781    -0.00141117  0.76D-05  0.41D-05  4  4    26.69
   5      1.22564091    -0.85843988  -264.64392858     0.00003769    -0.00036633  0.56D-06  0.29D-06  5  5    29.68
   6      1.22580309    -0.85841302  -264.64390171     0.00002686    -0.00000805  0.40D-07  0.24D-07  6  6    33.06
   7      1.22583244    -0.85841060  -264.64389929     0.00000242    -0.00000622  0.25D-08  0.40D-08  6  4    36.04
   8      1.22583274    -0.85841011  -264.64389880     0.00000049     0.00000195  0.39D-09  0.27D-09  6  1    39.12
   9      1.22583335    -0.85841018  -264.64389887    -0.00000007     0.00000056  0.26D-10  0.21D-10  6  2    42.11

 Norm of t1 vector:      0.10595426      S-energy:    -0.00000002      T1 diagnostic:  0.01529318
                                                                       D1 diagnostic:  0.04495083

 Adding energy correction from Wij-K(Fij), methodcc=6  factor=1.0
 
  CCSD correlation energy              -0.858410176015
  MP2-F12 correction (uncoupled)       -0.092492316354
  C*T doubles correction               -0.001475508238
  f12b correction                       0.015407161460


 Total CPU time for triples:     82.19 sec


 RESULTS
 =======

  Reference energy                   -263.769565033545
  F12 singles correction               -0.015923659945

 F12 singles corrections added to reference energy

  New reference energy               -263.785488693491

  F12a singlet correction              -0.080429743193
  F12a triplet correction              -0.013538081398
  F12a total correction                -0.093967824591

 F12a corrections for ansatz F12/3C(FIX) added to CCSD energy
 
  CCSD-F12a singlet pair energy        -0.641883117523
  CCSD-F12a triplet pair energy        -0.310494858436
  CCSD-F12a correlation energy         -0.952378000607

  Triples (T) contribution             -0.037636621203
  Total correlation energy             -0.990014621810

  CCSD-F12a total energy             -264.737866694097
  CCSD[T]-F12a energy                -264.778046473578
  CCSD-T-F12a energy                 -264.774565955510
 !CCSD(T)-F12a total energy          -264.775503315300

 F12b corrections for ansatz F12/3C(FIX) added to CCSD(T)-F12a energy

  CCSD-F12b singlet pair energy        -0.627699316133
  CCSD-F12b triplet pair energy        -0.309271498366
  CCSD-F12b correlation energy         -0.936970839147

  Triples (T) contribution             -0.037636621203
  Total correlation energy             -0.974607460350

  CCSD-F12b total energy             -264.722459532638
  CCSD[T]-F12b energy                -264.762639312118
  CCSD-T-F12b energy                 -264.759158794050
 !CCSD(T)-F12b total energy          -264.760096153841

 Timing summary (sec):

 STEP                 CPU(USER)    SYS     CPU(TOT)    WALL
 Transformation          5.52      0.58      6.10      6.10
 CCSD iterations        27.40      1.59     28.99     29.79
 Triples                82.19      1.60     83.79     83.76
 MP2-F12                 9.20      1.24     10.44     10.43
 F12b energy             1.81      0.02      1.83      1.83

 Program statistics:

 Available memory in ccsd:                99998934
 Min. memory needed in ccsd:               4458306
 Max. memory used in ccsd:                 5958390
 Max. memory used in cckext:               6352469 (10 integral passes)



 **********************************************************************************************************************************
 DATASETS  * FILE   NREC   LENGTH (MB)   RECORD NAMES
              1      20      269.66       500      610      700      900      950      970     1000      129      960     1100   
                                          VAR    BASINP    GEOM    SYMINP    ZMAT    AOBASIS   BASIS     P2S    ABASIS      S 
                                         1400     1410     1200     1210     1080     1600     1650     1700      960(1)  1380   
                                           T        V       H0       H01     AOSYM     SMH    MOLCAS    OPER    ABASIS    JKOP   

              2       5        1.55       700     1000     2100     7360     7350   
                                         GEOM     BASIS     RHF    F12ABS    EF12   

 PROGRAMS   *        TOTAL   CCSD(T)        HF       INT
 CPU TIMES  *       135.39    126.22      3.52      5.54
 REAL TIME  *       142.46 SEC
 DISK USED  *         1.57 GB      
 SF USED    *         1.53 GB      
 GA USED    *         2.40 MB       (max)       0.00 MB       (current)
 **********************************************************************************************************************************

     CCSD(T)-F12        HF-SCF  
   -264.76009615   -263.76956503
 **********************************************************************************************************************************
 Variable memory released
