
 Primary working directories    : /scratch/kee
 Secondary working directories  : /scratch/kee
 Wavefunction directory         : /home/kee/wfu/
 Main file repository           : /scratch/kee/

 ARCHNAME  : Linux/x86_64
 FC        : /opt/intel/composer_xe_2015.0.090/bin/intel64/ifort
 FCVERSION : 15.0.0
 BLASLIB   : -L/opt/intel/mkl/lib/intel64 -lmkl_intel_ilp64 -lmkl_sequential -lmkl_core
 id        : emory

 Nodes     nprocs
 node22       3
 Number of processes for MPI-2 version of Molpro:   nprocs(total)=    4   nprocs(compute)=    3   nprocs(helper)=    1
 ga_uses_ma=false, calling ma_init with nominal heap.
 GA-space will be limited to   8.0 MW (determined by -G option)

 Using customized tuning parameters: mindgm=7; mindgv=32; mindgc=1; mindgr=1; noblas=0; mincuda=1000; minvec=7
 default implementation of scratch files=sf  

 ***,co2h2o
 memory,100,m
 basis avtz
 geomtype = xyz
 geometry = {
 6
       0.00000000
 O     0.02747900    1.16001200    0.00000000
 O    -0.00936500   -1.16396300    0.00000000
 O     5.57532254   -0.02508622    0.00000000
 H     5.96441754    0.41618778    0.75746400
 H     5.96441754    0.41618778   -0.75746400
 C     0.02536600   -0.00312200    0.00000000
 }
 hf
 ccsd(t)-f12
 ---

 Variables initialized (665), CPU time= 0.00 sec
 Commands  initialized (462), CPU time= 0.01 sec, 486 directives.
 Default parameters read. Elapsed time= 0.04 sec

 Checking input...
 Passed
1


                                         ***  PROGRAM SYSTEM MOLPRO  ***
                         Copyright, University College Cardiff Consultants Limited, 2008

                                    Version 2010.1 linked 9 Dec 2014 15:06:28 


 **********************************************************************************************************************************
 LABEL *   co2h2o                                                                        
 Linux-2.6.32-504.el6.x86_64/node22(x86_64) 64 bit mpp version                           DATE: 15-Dec-16          TIME: 00:01:30  
 **********************************************************************************************************************************

 Patch level:      19
 **********************************************************************************************************************************

 Variable memory set to  100000000 words,  buffer space   230000 words

 SETTING BASIS          =    AVTZ
 SETTING GEOMTYPE       =    XYZ

Geometry recognized as XYZ



 Recomputing integrals since basis changed


 Using spherical harmonics

 Library entry O      S aug-cc-pVTZ          selected for orbital group  1
 Library entry O      P aug-cc-pVTZ          selected for orbital group  1
 Library entry O      D aug-cc-pVTZ          selected for orbital group  1
 Library entry O      F aug-cc-pVTZ          selected for orbital group  1
 Library entry H      S aug-cc-pVTZ          selected for orbital group  2
 Library entry H      P aug-cc-pVTZ          selected for orbital group  2
 Library entry H      D aug-cc-pVTZ          selected for orbital group  2
 Library entry C      S aug-cc-pVTZ          selected for orbital group  3
 Library entry C      P aug-cc-pVTZ          selected for orbital group  3
 Library entry C      D aug-cc-pVTZ          selected for orbital group  3
 Library entry C      F aug-cc-pVTZ          selected for orbital group  3

1PROGRAM * SEWARD (Integral evaluation for generally contracted gaussian basis sets)     Author: Roland Lindh, 1990

 Geometry written to block  1 of record 700


 Point group  Cs  



 ATOMIC COORDINATES

 NR  ATOM    CHARGE       X              Y              Z

   1  O       8.00    0.051927784    2.192104989    0.000000000
   2  O       8.00   -0.017697285   -2.199571297    0.000000000
   3  O       8.00   10.535832695   -0.047406085    0.000000000
   4  H       1.00   11.271115684    0.786480923    1.431399514
   5  H       1.00   11.271115684    0.786480923   -1.431399514
   6  C       6.00    0.047934793   -0.005899725    0.000000000

 Bond lengths in Bohr (Angstrom)

 1-6  2.198008341  2-6  2.194653170  3-4  1.812432947  3-5  1.812432947
     (1.163135919)     (1.161360439)     (0.959098208)     (0.959098208)

 Bond angles

  1-6-2  178.39037465   4-3-5  104.32746287

 NUCLEAR CHARGE:                   32
 NUMBER OF PRIMITIVE AOS:         322
 NUMBER OF SYMMETRY AOS:          282
 NUMBER OF CONTRACTIONS:          230   ( 143A'  +  87A"  )
 NUMBER OF CORE ORBITALS:           4   (   4A'  +   0A"  )
 NUMBER OF VALENCE ORBITALS:       18   (  13A'  +   5A"  )


 NUCLEAR REPULSION ENERGY   87.76822447


 Eigenvalues of metric

         1 0.349E-03 0.365E-03 0.396E-03 0.899E-03 0.922E-03 0.175E-02 0.178E-02 0.316E-02
         2 0.394E-03 0.165E-02 0.318E-02 0.348E-02 0.505E-02 0.622E-02 0.100E-01 0.124E-01


 Contracted 2-electron integrals neglected if value below      1.0D-11
 AO integral compression algorithm  1   Integral accuracy      1.0D-11

     434.373 MB (compressed) written to integral file ( 26.0%)

     Node minimum: 130.286 MB, node maximum: 164.102 MB


 NUMBER OF SORTED TWO-ELECTRON INTEGRALS:   59530350.     BUFFER LENGTH:  32768
 NUMBER OF SEGMENTS:   4  SEGMENT LENGTH:   15999984      RECORD LENGTH: 524288

 Memory used in sort:      16.56 MW

 SORT1 READ   209184447. AND WROTE    32041320. INTEGRALS IN     93 RECORDS. CPU TIME:     2.38 SEC, REAL TIME:     2.71 SEC
 SORT2 READ    96725018. AND WROTE   178576926. INTEGRALS IN   1878 RECORDS. CPU TIME:     0.88 SEC, REAL TIME:     1.18 SEC

 Node minimum:    59520934.  Node maximum:    59530350. integrals

 OPERATOR DM      FOR CENTER  0  COORDINATES:    0.000000    0.000000    0.000000


 **********************************************************************************************************************************
 DATASETS  * FILE   NREC   LENGTH (MB)   RECORD NAMES
              1      18        3.71       500      610      700      900      950      970     1000      129      960     1100   
                                          VAR    BASINP    GEOM    SYMINP    ZMAT    AOBASIS   BASIS     P2S    ABASIS      S 
                                         1400     1410     1200     1210     1080     1600     1650     1700   
                                           T        V       H0       H01     AOSYM     SMH    MOLCAS    OPER   

 PROGRAMS   *        TOTAL       INT
 CPU TIMES  *         6.30      6.23
 REAL TIME  *         7.22 SEC
 DISK USED  *         1.58 GB      
 GA USED    *         0.00 MB       (max)       0.00 MB       (current)
 **********************************************************************************************************************************

1PROGRAM * RHF-SCF (CLOSED SHELL)       Authors: W. Meyer, H.-J. Werner


 NUMBER OF ELECTRONS:      16+   16-
 CONVERGENCE THRESHOLDS:    1.00E-05 (Density)    1.00E-07 (Energy)
 MAX. NUMBER OF ITERATIONS:       60
 INTERPOLATION TYPE:            DIIS
 INTERPOLATION STEPS:              2 (START)      1 (STEP)
 LEVEL SHIFTS:                  0.00 (CLOSED)  0.00 (OPEN) 



 Orbital guess generated from atomic densities. Full valence occupancy:   17   5

 Molecular orbital dump at record        2100.2

 Initial alpha occupancy:  13   3
 Initial beta  occupancy:  13   3
 Wave function symmetry:    1

 ITERATION    DDIFF          GRAD             ENERGY        2-EL.EN.            DIPOLE MOMENTS         DIIS
    1      0.000D+00      0.000D+00      -263.66075427    371.198847    0.79968    0.84413    0.00000    0
    2      0.000D+00      0.642D-02      -263.72597656    366.603669    0.47456    0.48825    0.00000    1
    3      0.103D-01      0.436D-02      -263.76913826    369.163887    0.55634    0.57509    0.00000    2
    4      0.423D-02      0.411D-03      -263.76963352    368.952693    0.55823    0.57753    0.00000    3
    5      0.493D-03      0.119D-03      -263.76969161    368.954280    0.55484    0.57418    0.00000    4
    6      0.185D-03      0.483D-04      -263.76969883    368.968889    0.55529    0.57427    0.00000    5
    7      0.615D-04      0.119D-04      -263.76969956    368.960510    0.55500    0.57416    0.00000    6
    8      0.202D-04      0.268D-05      -263.76969961    368.961752    0.55501    0.57398    0.00000    7
    9      0.548D-05      0.122D-05      -263.76969961    368.961613    0.55499    0.57413    0.00000    0

 Final occupancy:  13   3

 !RHF STATE 1.1 Energy               -263.769699614102
 Nuclear energy                        87.76822447
 One-electron energy                 -536.01873036
 Two-electron energy                  184.48080627
 Virial quotient                       -1.00183577
 !RHF STATE 1.1 Dipole moment           0.55499185     0.57412930     0.00000000
 Dipole moment /Debye                   1.41055618     1.45919555     0.00000000

 Orbital energies:

         1.1          2.1          3.1          4.1          5.1          6.1          7.1          8.1          9.1         10.1
    -20.648464   -20.648259   -20.569391   -11.457251    -1.525979    -1.472899    -1.354575    -0.796355    -0.738610    -0.709946

        11.1         12.1         13.1         14.1         15.1
     -0.586860    -0.539710    -0.512107     0.027848     0.054907

         1.2          2.2          3.2          4.2          5.2
     -0.718258    -0.710101    -0.539795     0.046274     0.079937


 **********************************************************************************************************************************
 DATASETS  * FILE   NREC   LENGTH (MB)   RECORD NAMES
              1      18        3.72       500      610      700      900      950      970     1000      129      960     1100   
                                          VAR    BASINP    GEOM    SYMINP    ZMAT    AOBASIS   BASIS     P2S    ABASIS      S 
                                         1400     1410     1200     1210     1080     1600     1650     1700   
                                           T        V       H0       H01     AOSYM     SMH    MOLCAS    OPER   

              2       3        0.94       700     1000     2100   
                                         GEOM     BASIS     RHF  

 PROGRAMS   *        TOTAL        HF       INT
 CPU TIMES  *        10.04      3.74      6.23
 REAL TIME  *        11.20 SEC
 DISK USED  *         1.61 GB      
 SF USED    *         0.11 MB      
 GA USED    *         0.00 MB       (max)       0.00 MB       (current)
 **********************************************************************************************************************************


1PROGRAM * CCSD (Closed-shell coupled cluster)     Authors: C. Hampel, H.-J. Werner, 1991, M. Deegan, P.J. Knowles, 1992

                                  CCSD-F12 implementation by  H.-J. Werner, 2007

                   Density fitting integral evaluation by F.R. Manby, 2003,2007, G. Knizia, 2010

 Basis set CC-PVTZ/JKFIT generated.      Number of basis functions:   376 
 Basis set AUG-CC-PVTZ/MP2FIT generated. Number of basis functions:   516 

 Convergence thresholds:  THRVAR = 1.00D-08  THRDEN = 1.00D-06

 CCSD(T)     terms to be evaluated (factor= 1.000)


 Number of core orbitals:           4 (   4   0 )
 Number of closed-shell orbitals:  12 (   9   3 )
 Number of external orbitals:     214 ( 130  84 )

 Molecular orbitals read from record     2100.2  Type=RHF/CANONICAL (state 1.1)

 MP2-F12 correlation treatment (H.-J. Werner, 2006)
 --------------------------------------------------

 Using MP2-F12 with ansatz 3C(FIX)

 Using projected zeroth-order Hamiltonian (+Z)

 FOCKRIB=T FOCKRIC=T FOCKRIP=T CABSP=T CABSA=T CABSK=T CABSF=T GBC=F EBC=F DMAT=T NOFIK=T NOPAO=1 SOLVE=-1  USEPAO=0
 EXCH_A= T EXCH_B= F EXCH_C= F EXCH_P= F
 
 Geminal basis:    OPTFULL  GEM_TYPE=SLATER  BETA=1.0  NGEM=6

 Optimizing Gaussian exponents for each gem_beta

 Geminal optimization for beta= 1.0000
 Weight function:   m=0, omega= 1.4646

 Augmented Hessian optimization of geminal fit. Trust ratio= 0.40000
 Convergence reached after   2 iterations. Final gradient= 8.24D-16, Step= 4.32D-06, Delta= 1.28D-09
 
 Alpha:                 0.19532     0.81920     2.85917     9.50073    35.69989   197.79328
 Coeff:                 0.27070     0.30552     0.18297     0.10986     0.06810     0.04224
 

 Symmetry turned off. Reference energy:       -263.769699614102

 All pairs explicitly correlated. Number of r12-pairs:           78
 
 AO(A)-basis ORBITAL           loaded. Number of functions:     230
 RI(R)-basis CC-PVTZ/JKFIT     loaded. Number of functions:     376
 DF-basis CC-PVTZ/JKFIT        loaded. Number of functions:     376

 Screening thresholds:   THRAO=  1.00D-10  THRMO=  1.00D-09  THRPROD=  1.00D-09
                         THRSW=  1.00D-05  THROV=  1.00D-12  THRF12=   1.00D-08

 CPU time for Fock operators                      0.88 sec
 
 Construction of ABS:
 Smallest eigenvalue of S          2.57E-04  (threshold= 1.00E-08)
 Ratio eigmin/eigmax               1.83E-06  (threshold= 1.00E-09)
 Smallest eigenvalue of S kept     2.57E-04  (threshold= 2.57E-04, 0 functions deleted, 376 kept)
 
 Construction of CABS:
 Smallest eigenvalue of S          2.30E-08  (threshold= 1.00E-08)
 Ratio eigmin/eigmax               2.30E-08  (threshold= 1.00E-09)
 Smallest eigenvalue of S kept     2.30E-08  (threshold= 2.30E-08, 0 functions deleted, 376 kept)
 
 CPU time for CABS singles                        0.16 sec

 CABS-singles contribution of  -0.01592400 patched into reference energy.
 New reference energy        -263.78562361
 
 AO(A)-basis ORBITAL           loaded. Number of functions:     230
 RI(R)-basis CC-PVTZ/JKFIT     loaded. Number of functions:     376
 DF-basis AUG-CC-PVTZ/MP2FIT   loaded. Number of functions:     516

 Screening thresholds:   THRAO=  1.00D-10  THRMO=  1.00D-09  THRPROD=  1.00D-09
                         THRSW=  1.00D-05  THROV=  1.00D-12  THRF12=   1.00D-08

 CPU time for 3-index integral evaluation         1.95 sec
 CPU time for first  half transformation          0.35 sec ( 8026.3 MFLOP/sec)
 CPU time for second half transformation          0.03 sec ( 3563.1 MFLOP/sec)
 CPU time for sorting                             0.14 sec
 CPU time for fitting                             0.05 sec (27861.0 MFLOP/sec)
 CPU time for tilde quantities                    0.06 sec (30814.7 MFLOP/sec)
 CPU time for assembly                            0.73 sec (31970.0 MFLOP/sec)
 CPU time for tranop_f12                          0.88 sec (35616.0 MFLOP/sec)
 CPU time for f12 integrals (total)               6.17 sec
 F12-matrices built in  3 passes.
 F12-matrices built in  3 passes.
 F12-matrices built in  3 passes.
 F12-matrices built in  3 passes.
 FC-matrix built in  3 passes.
 CPU time for f12 matrices (total)                0.47 sec

 Diagonal F12 approximation with fixed coefficients:  TSING= 0.500,  TTRIP= 0.250 (scaled by -1/beta)

 DF-MP2-F12 energy corrections:
 ------------------------------
 Approx.                                    Singlet             Triplet             Total
 DF-MP2-F12/3*C(DX,FIX)                -0.097436555693     -0.016931165046     -0.114367720739
 DF-MP2-F12/3*C(FIX)                   -0.079853800552     -0.013393602914     -0.093247403466
 DF-MP2-F12/3C(FIX)                    -0.080215690714     -0.013417219840     -0.093632910554

 DF-MP2-F12 correlation energies:
 --------------------------------
 Approx.                                    Singlet             Triplet             Ecorr            Total Energy
 DF-MP2                                -0.537772177427     -0.343116054139     -0.880888231566   -264.666511845633
 DF-MP2-F12/3*C(DX,FIX)                -0.635208733120     -0.360047219185     -0.995255952305   -264.780879566372
 DF-MP2-F12/3*C(FIX)                   -0.617625977980     -0.356509657053     -0.974135635032   -264.759759249100
 DF-MP2-F12/3C(FIX)                    -0.617987868141     -0.356533273978     -0.974521142120   -264.760144756187

 SCS-DF-MP2 energies (F_SING= 1.20000  F_TRIP= 0.62222  F_PARALLEL= 0.33333):
 ----------------------------------------------------------------------------
 SCS-DF-MP2                            -0.858821046599   -264.644444660666
 SCS-DF-MP2-F12/3*C(DX,FIX)            -0.986279860570   -264.771903474637
 SCS-DF-MP2-F12/3*C(FIX)               -0.962979404631   -264.748603018698
 SCS-DF-MP2-F12/3C(FIX)                -0.963428367801   -264.749051981868

 Symmetry restored.
 Symmetry transformation completed.

 Number of N-1 electron functions:              12
 Number of N-2 electron functions:              78
 Number of singly external CSFs:              1422
 Number of doubly external CSFs:           1668984
 Total number of CSFs:                     1670407

 Pair and operator lists are different

 Length of J-op  integral file:             466.33 MB
 Length of K-op  integral file:             525.76 MB
 Length of 3-ext integral record:             0.00 MB

 Memory could be reduced to 76.19 Mwords without degradation in triples

 Integral transformation finished. Total CPU:   4.07 sec, npass=  1  Memory used:  26.50 MW

 Reference energy:                   -263.78562361

 Adding F12 terms to K(Cij), methodcc=6,  factor=1.0

 ITER.      SQ.NORM     CORR.ENERGY   TOTAL ENERGY   ENERGY CHANGE        DEN1      VAR(S)    VAR(P)  DIIS     TIME
   1      1.20218918    -0.86283298  -264.64845659     0.01807156     0.04670826  0.72D-02  0.56D-02  1  1    14.75
   2      1.21650726    -0.85860832  -264.64423193     0.00422466    -0.02015664  0.87D-04  0.59D-03  2  2    17.27
   3      1.22187355    -0.85870559  -264.64432920    -0.00009727    -0.00236662  0.13D-03  0.32D-04  3  3    20.05
   4      1.22467833    -0.85857776  -264.64420138     0.00012783    -0.00141243  0.76D-05  0.41D-05  4  4    22.80
   5      1.22570921    -0.85854011  -264.64416373     0.00003765    -0.00036655  0.56D-06  0.29D-06  5  5    25.60
   6      1.22587157    -0.85851324  -264.64413686     0.00002687    -0.00000807  0.40D-07  0.24D-07  6  6    28.42
   7      1.22590101    -0.85851082  -264.64413443     0.00000243    -0.00000622  0.26D-08  0.40D-08  6  4    31.33
   8      1.22590133    -0.85851033  -264.64413394     0.00000049     0.00000194  0.39D-09  0.27D-09  6  1    34.93
   9      1.22590195    -0.85851039  -264.64413401    -0.00000007     0.00000056  0.26D-10  0.21D-10  6  2    37.78

 Norm of t1 vector:      0.10600054      S-energy:     0.00000007      T1 diagnostic:  0.01529986
                                                                       D1 diagnostic:  0.04497651

 Adding energy correction from Wij-K(Fij), methodcc=6  factor=1.0
 
  CCSD correlation energy              -0.858510393313
  MP2-F12 correction (uncoupled)       -0.092474935050
  C*T doubles correction               -0.001475858805
  f12b correction                       0.015406270546


 Total CPU time for triples:     75.53 sec


 RESULTS
 =======

  Reference energy                   -263.769699614102
  F12 singles correction               -0.015923999965

 F12 singles corrections added to reference energy

  New reference energy               -263.785623614067

  F12a singlet correction              -0.080415185215
  F12a triplet correction              -0.013535608640
  F12a total correction                -0.093950793854

 F12a corrections for ansatz F12/3C(FIX) added to CCSD energy
 
  CCSD-F12a singlet pair energy        -0.641929899306
  CCSD-F12a triplet pair energy        -0.310531359646
  CCSD-F12a correlation energy         -0.952461187168

  Triples (T) contribution             -0.037651070597
  Total correlation energy             -0.990112257765

  CCSD-F12a total energy             -264.738084801235
  CCSD[T]-F12a energy                -264.778280108880
  CCSD-T-F12a energy                 -264.774798197285
 !CCSD(T)-F12a total energy          -264.775735871832

 F12b corrections for ansatz F12/3C(FIX) added to CCSD(T)-F12a energy

  CCSD-F12b singlet pair energy        -0.627746863748
  CCSD-F12b triplet pair energy        -0.309308124659
  CCSD-F12b correlation energy         -0.937054916622

  Triples (T) contribution             -0.037651070597
  Total correlation energy             -0.974705987219

  CCSD-F12b total energy             -264.722678530689
  CCSD[T]-F12b energy                -264.762873838334
  CCSD-T-F12b energy                 -264.759391926740
 !CCSD(T)-F12b total energy          -264.760329601286

 Timing summary (sec):

 STEP                 CPU(USER)    SYS     CPU(TOT)    WALL
 Transformation          4.10      0.50      4.60      4.59
 CCSD iterations        25.60      1.49     27.09     27.31
 Triples                75.53      1.63     77.16     77.12
 MP2-F12                 8.09      1.10      9.19      9.19
 F12b energy             1.90      0.02      1.92      2.71

 Program statistics:

 Available memory in ccsd:                99998934
 Min. memory needed in ccsd:               4419579
 Max. memory used in ccsd:                 5922321
 Max. memory used in cckext:               6231049 (10 integral passes)



 **********************************************************************************************************************************
 DATASETS  * FILE   NREC   LENGTH (MB)   RECORD NAMES
              1      20      268.24       500      610      700      900      950      970     1000      129      960     1100   
                                          VAR    BASINP    GEOM    SYMINP    ZMAT    AOBASIS   BASIS     P2S    ABASIS      S 
                                         1400     1410     1200     1210     1080     1600     1650     1700      960(1)  1380   
                                           T        V       H0       H01     AOSYM     SMH    MOLCAS    OPER    ABASIS    JKOP   

              2       5        1.51       700     1000     2100     7360     7350   
                                         GEOM     BASIS     RHF    F12ABS    EF12   

 PROGRAMS   *        TOTAL   CCSD(T)        HF       INT
 CPU TIMES  *       125.29    115.25      3.74      6.23
 REAL TIME  *       132.44 SEC
 DISK USED  *         2.04 GB      
 SF USED    *         1.52 GB      
 GA USED    *         2.40 MB       (max)       0.00 MB       (current)
 **********************************************************************************************************************************

     CCSD(T)-F12        HF-SCF  
   -264.76032960   -263.76969961
 **********************************************************************************************************************************
 Variable memory released
