
 Primary working directories    : /scratch/kee
 Secondary working directories  : /scratch/kee
 Wavefunction directory         : /home/kee/wfu/
 Main file repository           : /scratch/kee/

 ARCHNAME  : Linux/x86_64
 FC        : /opt/intel/composer_xe_2015.0.090/bin/intel64/ifort
 FCVERSION : 15.0.0
 BLASLIB   : -L/opt/intel/mkl/lib/intel64 -lmkl_intel_ilp64 -lmkl_sequential -lmkl_core
 id        : emory

 Nodes     nprocs
 node22       3
 Number of processes for MPI-2 version of Molpro:   nprocs(total)=    4   nprocs(compute)=    3   nprocs(helper)=    1
 ga_uses_ma=false, calling ma_init with nominal heap.
 GA-space will be limited to   8.0 MW (determined by -G option)

 Using customized tuning parameters: mindgm=7; mindgv=32; mindgc=1; mindgr=1; noblas=0; mincuda=1000; minvec=7
 default implementation of scratch files=sf  

 ***,co2h2o
 memory,100,m
 basis avtz
 geomtype = xyz
 geometry = {
 6
       0.00000000
 O     0.02747900    1.16001200    0.00000000
 O    -0.00936500   -1.16396300    0.00000000
 O     5.47532332   -0.02469047    0.00000000
 H     5.86441832    0.41658353    0.75746400
 H     5.86441832    0.41658353   -0.75746400
 C     0.02536600   -0.00312200    0.00000000
 }
 hf
 ccsd(t)-f12
 ---

 Variables initialized (665), CPU time= 0.00 sec
 Commands  initialized (462), CPU time= 0.01 sec, 486 directives.
 Default parameters read. Elapsed time= 0.03 sec

 Checking input...
 Passed
1


                                         ***  PROGRAM SYSTEM MOLPRO  ***
                         Copyright, University College Cardiff Consultants Limited, 2008

                                    Version 2010.1 linked 9 Dec 2014 15:06:28 


 **********************************************************************************************************************************
 LABEL *   co2h2o                                                                        
 Linux-2.6.32-504.el6.x86_64/node22(x86_64) 64 bit mpp version                           DATE: 14-Dec-16          TIME: 23:57:05  
 **********************************************************************************************************************************

 Patch level:      19
 **********************************************************************************************************************************

 Variable memory set to  100000000 words,  buffer space   230000 words

 SETTING BASIS          =    AVTZ
 SETTING GEOMTYPE       =    XYZ

Geometry recognized as XYZ



 Recomputing integrals since basis changed


 Using spherical harmonics

 Library entry O      S aug-cc-pVTZ          selected for orbital group  1
 Library entry O      P aug-cc-pVTZ          selected for orbital group  1
 Library entry O      D aug-cc-pVTZ          selected for orbital group  1
 Library entry O      F aug-cc-pVTZ          selected for orbital group  1
 Library entry H      S aug-cc-pVTZ          selected for orbital group  2
 Library entry H      P aug-cc-pVTZ          selected for orbital group  2
 Library entry H      D aug-cc-pVTZ          selected for orbital group  2
 Library entry C      S aug-cc-pVTZ          selected for orbital group  3
 Library entry C      P aug-cc-pVTZ          selected for orbital group  3
 Library entry C      D aug-cc-pVTZ          selected for orbital group  3
 Library entry C      F aug-cc-pVTZ          selected for orbital group  3

1PROGRAM * SEWARD (Integral evaluation for generally contracted gaussian basis sets)     Author: Roland Lindh, 1990

 Geometry written to block  1 of record 700


 Point group  Cs  



 ATOMIC COORDINATES

 NR  ATOM    CHARGE       X              Y              Z

   1  O       8.00    0.051927784    2.192104989    0.000000000
   2  O       8.00   -0.017697285   -2.199571297    0.000000000
   3  O       8.00   10.346861556   -0.046658226    0.000000000
   4  H       1.00   11.082144545    0.787228783    1.431399514
   5  H       1.00   11.082144545    0.787228783   -1.431399514
   6  C       6.00    0.047934793   -0.005899725    0.000000000

 Bond lengths in Bohr (Angstrom)

 1-6  2.198008341  2-6  2.194653170  3-4  1.812432947  3-5  1.812432947
     (1.163135919)     (1.161360439)     (0.959098208)     (0.959098208)

 Bond angles

  1-6-2  178.39037465   4-3-5  104.32746287

 NUCLEAR CHARGE:                   32
 NUMBER OF PRIMITIVE AOS:         322
 NUMBER OF SYMMETRY AOS:          282
 NUMBER OF CONTRACTIONS:          230   ( 143A'  +  87A"  )
 NUMBER OF CORE ORBITALS:           4   (   4A'  +   0A"  )
 NUMBER OF VALENCE ORBITALS:       18   (  13A'  +   5A"  )


 NUCLEAR REPULSION ENERGY   88.12305677


 Eigenvalues of metric

         1 0.349E-03 0.364E-03 0.395E-03 0.899E-03 0.922E-03 0.175E-02 0.178E-02 0.316E-02
         2 0.394E-03 0.164E-02 0.318E-02 0.348E-02 0.505E-02 0.622E-02 0.100E-01 0.124E-01


 Contracted 2-electron integrals neglected if value below      1.0D-11
 AO integral compression algorithm  1   Integral accuracy      1.0D-11

     442.499 MB (compressed) written to integral file ( 26.4%)

     Node minimum: 128.188 MB, node maximum: 161.219 MB


 NUMBER OF SORTED TWO-ELECTRON INTEGRALS:   59530350.     BUFFER LENGTH:  32768
 NUMBER OF SEGMENTS:   4  SEGMENT LENGTH:   15999984      RECORD LENGTH: 524288

 Memory used in sort:      16.56 MW

 SORT1 READ   209679115. AND WROTE    32796736. INTEGRALS IN     96 RECORDS. CPU TIME:     2.44 SEC, REAL TIME:     2.81 SEC
 SORT2 READ    99031901. AND WROTE   178576926. INTEGRALS IN   1467 RECORDS. CPU TIME:     0.84 SEC, REAL TIME:     1.15 SEC

 Node minimum:    59520934.  Node maximum:    59530350. integrals

 OPERATOR DM      FOR CENTER  0  COORDINATES:    0.000000    0.000000    0.000000


 **********************************************************************************************************************************
 DATASETS  * FILE   NREC   LENGTH (MB)   RECORD NAMES
              1      18        3.71       500      610      700      900      950      970     1000      129      960     1100   
                                          VAR    BASINP    GEOM    SYMINP    ZMAT    AOBASIS   BASIS     P2S    ABASIS      S 
                                         1400     1410     1200     1210     1080     1600     1650     1700   
                                           T        V       H0       H01     AOSYM     SMH    MOLCAS    OPER   

 PROGRAMS   *        TOTAL       INT
 CPU TIMES  *         6.24      6.17
 REAL TIME  *         7.05 SEC
 DISK USED  *         1.62 GB      
 GA USED    *         0.00 MB       (max)       0.00 MB       (current)
 **********************************************************************************************************************************

1PROGRAM * RHF-SCF (CLOSED SHELL)       Authors: W. Meyer, H.-J. Werner


 NUMBER OF ELECTRONS:      16+   16-
 CONVERGENCE THRESHOLDS:    1.00E-05 (Density)    1.00E-07 (Energy)
 MAX. NUMBER OF ITERATIONS:       60
 INTERPOLATION TYPE:            DIIS
 INTERPOLATION STEPS:              2 (START)      1 (STEP)
 LEVEL SHIFTS:                  0.00 (CLOSED)  0.00 (OPEN) 



 Orbital guess generated from atomic densities. Full valence occupancy:   17   5

 Molecular orbital dump at record        2100.2

 Initial alpha occupancy:  13   3
 Initial beta  occupancy:  13   3
 Wave function symmetry:    1

 ITERATION    DDIFF          GRAD             ENERGY        2-EL.EN.            DIPOLE MOMENTS         DIIS
    1      0.000D+00      0.000D+00      -263.66080692    371.916725    0.79970    0.84413    0.00000    0
    2      0.000D+00      0.642D-02      -263.72601982    367.319851    0.47587    0.48768    0.00000    1
    3      0.103D-01      0.435D-02      -263.76916202    369.879826    0.55727    0.57484    0.00000    2
    4      0.423D-02      0.411D-03      -263.76965728    369.668783    0.55915    0.57719    0.00000    3
    5      0.493D-03      0.119D-03      -263.76971538    369.670275    0.55578    0.57391    0.00000    4
    6      0.185D-03      0.483D-04      -263.76972260    369.684905    0.55624    0.57396    0.00000    5
    7      0.615D-04      0.119D-04      -263.76972333    369.676527    0.55595    0.57388    0.00000    6
    8      0.202D-04      0.269D-05      -263.76972338    369.677758    0.55596    0.57368    0.00000    7
    9      0.548D-05      0.127D-05      -263.76972338    369.677628    0.55594    0.57384    0.00000    0

 Final occupancy:  13   3

 !RHF STATE 1.1 Energy               -263.769723381418
 Nuclear energy                        88.12305677
 One-electron energy                 -536.73159413
 Two-electron energy                  184.83881398
 Virial quotient                       -1.00183605
 !RHF STATE 1.1 Dipole moment           0.55594196     0.57383942     0.00000000
 Dipole moment /Debye                   1.41297096     1.45845881     0.00000000

 Orbital energies:

         1.1          2.1          3.1          4.1          5.1          6.1          7.1          8.1          9.1         10.1
    -20.648264   -20.648076   -20.569487   -11.457066    -1.525787    -1.472709    -1.354672    -0.796172    -0.738429    -0.709747

        11.1         12.1         13.1         14.1         15.1
     -0.586965    -0.539521    -0.512209     0.027840     0.055171

         1.2          2.2          3.2          4.2          5.2
     -0.718355    -0.709913    -0.539610     0.046252     0.080230


 **********************************************************************************************************************************
 DATASETS  * FILE   NREC   LENGTH (MB)   RECORD NAMES
              1      18        3.72       500      610      700      900      950      970     1000      129      960     1100   
                                          VAR    BASINP    GEOM    SYMINP    ZMAT    AOBASIS   BASIS     P2S    ABASIS      S 
                                         1400     1410     1200     1210     1080     1600     1650     1700   
                                           T        V       H0       H01     AOSYM     SMH    MOLCAS    OPER   

              2       3        0.94       700     1000     2100   
                                         GEOM     BASIS     RHF  

 PROGRAMS   *        TOTAL        HF       INT
 CPU TIMES  *         9.99      3.75      6.17
 REAL TIME  *        11.03 SEC
 DISK USED  *         1.65 GB      
 SF USED    *         0.11 MB      
 GA USED    *         0.00 MB       (max)       0.00 MB       (current)
 **********************************************************************************************************************************


1PROGRAM * CCSD (Closed-shell coupled cluster)     Authors: C. Hampel, H.-J. Werner, 1991, M. Deegan, P.J. Knowles, 1992

                                  CCSD-F12 implementation by  H.-J. Werner, 2007

                   Density fitting integral evaluation by F.R. Manby, 2003,2007, G. Knizia, 2010

 Basis set CC-PVTZ/JKFIT generated.      Number of basis functions:   376 
 Basis set AUG-CC-PVTZ/MP2FIT generated. Number of basis functions:   516 

 Convergence thresholds:  THRVAR = 1.00D-08  THRDEN = 1.00D-06

 CCSD(T)     terms to be evaluated (factor= 1.000)


 Number of core orbitals:           4 (   4   0 )
 Number of closed-shell orbitals:  12 (   9   3 )
 Number of external orbitals:     214 ( 130  84 )

 Molecular orbitals read from record     2100.2  Type=RHF/CANONICAL (state 1.1)

 MP2-F12 correlation treatment (H.-J. Werner, 2006)
 --------------------------------------------------

 Using MP2-F12 with ansatz 3C(FIX)

 Using projected zeroth-order Hamiltonian (+Z)

 FOCKRIB=T FOCKRIC=T FOCKRIP=T CABSP=T CABSA=T CABSK=T CABSF=T GBC=F EBC=F DMAT=T NOFIK=T NOPAO=1 SOLVE=-1  USEPAO=0
 EXCH_A= T EXCH_B= F EXCH_C= F EXCH_P= F
 
 Geminal basis:    OPTFULL  GEM_TYPE=SLATER  BETA=1.0  NGEM=6

 Optimizing Gaussian exponents for each gem_beta

 Geminal optimization for beta= 1.0000
 Weight function:   m=0, omega= 1.4646

 Augmented Hessian optimization of geminal fit. Trust ratio= 0.40000
 Convergence reached after   2 iterations. Final gradient= 8.24D-16, Step= 4.32D-06, Delta= 1.28D-09
 
 Alpha:                 0.19532     0.81920     2.85917     9.50073    35.69989   197.79328
 Coeff:                 0.27070     0.30552     0.18297     0.10986     0.06810     0.04224
 

 Symmetry turned off. Reference energy:       -263.769723381418

 All pairs explicitly correlated. Number of r12-pairs:           78
 
 AO(A)-basis ORBITAL           loaded. Number of functions:     230
 RI(R)-basis CC-PVTZ/JKFIT     loaded. Number of functions:     376
 DF-basis CC-PVTZ/JKFIT        loaded. Number of functions:     376

 Screening thresholds:   THRAO=  1.00D-10  THRMO=  1.00D-09  THRPROD=  1.00D-09
                         THRSW=  1.00D-05  THROV=  1.00D-12  THRF12=   1.00D-08

 CPU time for Fock operators                      0.93 sec
 
 Construction of ABS:
 Smallest eigenvalue of S          2.57E-04  (threshold= 1.00E-08)
 Ratio eigmin/eigmax               1.83E-06  (threshold= 1.00E-09)
 Smallest eigenvalue of S kept     2.57E-04  (threshold= 2.57E-04, 0 functions deleted, 376 kept)
 
 Construction of CABS:
 Smallest eigenvalue of S          2.30E-08  (threshold= 1.00E-08)
 Ratio eigmin/eigmax               2.30E-08  (threshold= 1.00E-09)
 Smallest eigenvalue of S kept     2.30E-08  (threshold= 2.30E-08, 0 functions deleted, 376 kept)
 
 CPU time for CABS singles                        0.16 sec

 CABS-singles contribution of  -0.01592434 patched into reference energy.
 New reference energy        -263.78564772
 
 AO(A)-basis ORBITAL           loaded. Number of functions:     230
 RI(R)-basis CC-PVTZ/JKFIT     loaded. Number of functions:     376
 DF-basis AUG-CC-PVTZ/MP2FIT   loaded. Number of functions:     516

 Screening thresholds:   THRAO=  1.00D-10  THRMO=  1.00D-09  THRPROD=  1.00D-09
                         THRSW=  1.00D-05  THROV=  1.00D-12  THRF12=   1.00D-08

 CPU time for 3-index integral evaluation         2.10 sec
 CPU time for first  half transformation          0.28 sec ( 9605.7 MFLOP/sec)
 CPU time for second half transformation          0.04 sec ( 2491.8 MFLOP/sec)
 CPU time for sorting                             0.16 sec
 CPU time for fitting                             0.05 sec (27861.0 MFLOP/sec)
 CPU time for tilde quantities                    0.05 sec (36977.6 MFLOP/sec)
 CPU time for assembly                            0.76 sec (30324.7 MFLOP/sec)
 CPU time for tranop_f12                          0.88 sec (34090.6 MFLOP/sec)
 CPU time for f12 integrals (total)               6.33 sec
 F12-matrices built in  3 passes.
 F12-matrices built in  3 passes.
 F12-matrices built in  3 passes.
 F12-matrices built in  3 passes.
 FC-matrix built in  3 passes.
 CPU time for f12 matrices (total)                0.48 sec

 Diagonal F12 approximation with fixed coefficients:  TSING= 0.500,  TTRIP= 0.250 (scaled by -1/beta)

 DF-MP2-F12 energy corrections:
 ------------------------------
 Approx.                                    Singlet             Triplet             Total
 DF-MP2-F12/3*C(DX,FIX)                -0.097435846066     -0.016931072674     -0.114366918740
 DF-MP2-F12/3*C(FIX)                   -0.079853205516     -0.013393526821     -0.093246732337
 DF-MP2-F12/3C(FIX)                    -0.080215140904     -0.013417160715     -0.093632301619

 DF-MP2-F12 correlation energies:
 --------------------------------
 Approx.                                    Singlet             Triplet             Ecorr            Total Energy
 DF-MP2                                -0.537771462144     -0.343118071656     -0.880889533799   -264.666537258720
 DF-MP2-F12/3*C(DX,FIX)                -0.635207308209     -0.360049144330     -0.995256452539   -264.780904177460
 DF-MP2-F12/3*C(FIX)                   -0.617624667660     -0.356511598477     -0.974136266136   -264.759783991057
 DF-MP2-F12/3C(FIX)                    -0.617986603047     -0.356535232371     -0.974521835418   -264.760169560338

 SCS-DF-MP2 energies (F_SING= 1.20000  F_TRIP= 0.62222  F_PARALLEL= 0.33333):
 ----------------------------------------------------------------------------
 SCS-DF-MP2                            -0.858821443603   -264.644469168523
 SCS-DF-MP2-F12/3*C(DX,FIX)            -0.986279348545   -264.771927073466
 SCS-DF-MP2-F12/3*C(FIX)               -0.962979040244   -264.748626765164
 SCS-DF-MP2-F12/3C(FIX)                -0.963428068243   -264.749075793163

 Symmetry restored.
 Symmetry transformation completed.

 Number of N-1 electron functions:              12
 Number of N-2 electron functions:              78
 Number of singly external CSFs:              1422
 Number of doubly external CSFs:           1668984
 Total number of CSFs:                     1670407

 Pair and operator lists are different

 Length of J-op  integral file:             466.33 MB
 Length of K-op  integral file:             525.76 MB
 Length of 3-ext integral record:             0.00 MB

 Memory could be reduced to 76.19 Mwords without degradation in triples

 Integral transformation finished. Total CPU:   3.64 sec, npass=  1  Memory used:  26.50 MW

 Reference energy:                   -263.78564772

 Adding F12 terms to K(Cij), methodcc=6,  factor=1.0

 ITER.      SQ.NORM     CORR.ENERGY   TOTAL ENERGY   ENERGY CHANGE        DEN1      VAR(S)    VAR(P)  DIIS     TIME
   1      1.20218869    -0.86283452  -264.64848224     0.01807130     0.04670718  0.72D-02  0.56D-02  1  1    14.46
   2      1.21650662    -0.85861024  -264.64425796     0.00422428    -0.02015623  0.87D-04  0.59D-03  2  2    17.04
   3      1.22187303    -0.85870759  -264.64435531    -0.00009735    -0.00236665  0.13D-03  0.32D-04  3  3    19.61
   4      1.22467791    -0.85857977  -264.64422749     0.00012782    -0.00141244  0.76D-05  0.41D-05  4  4    22.26
   5      1.22570882    -0.85854212  -264.64418985     0.00003765    -0.00036654  0.56D-06  0.29D-06  5  5    24.77
   6      1.22587120    -0.85851525  -264.64416298     0.00002687    -0.00000807  0.40D-07  0.24D-07  6  6    27.83
   7      1.22590063    -0.85851283  -264.64416055     0.00000242    -0.00000623  0.26D-08  0.40D-08  6  4    30.83
   8      1.22590096    -0.85851234  -264.64416006     0.00000049     0.00000194  0.39D-09  0.27D-09  6  1    33.75
   9      1.22590158    -0.85851240  -264.64416013    -0.00000007     0.00000056  0.26D-10  0.21D-10  6  2    36.56

 Norm of t1 vector:      0.10600181      S-energy:     0.00000009      T1 diagnostic:  0.01530004
                                                                       D1 diagnostic:  0.04497875

 Adding energy correction from Wij-K(Fij), methodcc=6  factor=1.0
 
  CCSD correlation energy              -0.858512402580
  MP2-F12 correction (uncoupled)       -0.092474340274
  C*T doubles correction               -0.001475819651
  f12b correction                       0.015406224262


 Total CPU time for triples:     74.86 sec


 RESULTS
 =======

  Reference energy                   -263.769723381418
  F12 singles correction               -0.015924343502

 F12 singles corrections added to reference energy

  New reference energy               -263.785647724920

  F12a singlet correction              -0.080414614725
  F12a triplet correction              -0.013535545200
  F12a total correction                -0.093950159925

 F12a corrections for ansatz F12/3C(FIX) added to CCSD energy
 
  CCSD-F12a singlet pair energy        -0.641928382228
  CCSD-F12a triplet pair energy        -0.310534268822
  CCSD-F12a correlation energy         -0.952462562504

  Triples (T) contribution             -0.037651484994
  Total correlation energy             -0.990114047499

  CCSD-F12a total energy             -264.738110287425
  CCSD[T]-F12a energy                -264.778305954869
  CCSD-T-F12a energy                 -264.774824142853
 !CCSD(T)-F12a total energy          -264.775761772419

 F12b corrections for ansatz F12/3C(FIX) added to CCSD(T)-F12a energy

  CCSD-F12b singlet pair energy        -0.627745396546
  CCSD-F12b triplet pair energy        -0.309311030242
  CCSD-F12b correlation energy         -0.937056338243

  Triples (T) contribution             -0.037651484994
  Total correlation energy             -0.974707823237

  CCSD-F12b total energy             -264.722704063163
  CCSD[T]-F12b energy                -264.762899730608
  CCSD-T-F12b energy                 -264.759417918591
 !CCSD(T)-F12b total energy          -264.760355548157

 Timing summary (sec):

 STEP                 CPU(USER)    SYS     CPU(TOT)    WALL
 Transformation          3.67      0.51      4.18      4.19
 CCSD iterations        24.55      1.44     25.99     26.00
 Triples                74.86      1.62     76.48     76.46
 MP2-F12                 8.35      1.17      9.52      9.51
 F12b energy             1.84      0.04      1.88      1.88

 Program statistics:

 Available memory in ccsd:                99998934
 Min. memory needed in ccsd:               4419579
 Max. memory used in ccsd:                 5922321
 Max. memory used in cckext:               6231049 (10 integral passes)



 **********************************************************************************************************************************
 DATASETS  * FILE   NREC   LENGTH (MB)   RECORD NAMES
              1      20      268.24       500      610      700      900      950      970     1000      129      960     1100   
                                          VAR    BASINP    GEOM    SYMINP    ZMAT    AOBASIS   BASIS     P2S    ABASIS      S 
                                         1400     1410     1200     1210     1080     1600     1650     1700      960(1)  1380   
                                           T        V       H0       H01     AOSYM     SMH    MOLCAS    OPER    ABASIS    JKOP   

              2       5        1.51       700     1000     2100     7360     7350   
                                         GEOM     BASIS     RHF    F12ABS    EF12   

 PROGRAMS   *        TOTAL   CCSD(T)        HF       INT
 CPU TIMES  *       123.29    113.29      3.75      6.17
 REAL TIME  *       129.39 SEC
 DISK USED  *         2.08 GB      
 SF USED    *         1.52 GB      
 GA USED    *         2.40 MB       (max)       0.00 MB       (current)
 **********************************************************************************************************************************

     CCSD(T)-F12        HF-SCF  
   -264.76035555   -263.76972338
 **********************************************************************************************************************************
 Variable memory released
