
 Primary working directories    : /scratch/kee
 Secondary working directories  : /scratch/kee
 Wavefunction directory         : /home/kee/wfu/
 Main file repository           : /scratch/kee/

 ARCHNAME  : Linux/x86_64
 FC        : /opt/intel/composer_xe_2015.0.090/bin/intel64/ifort
 FCVERSION : 15.0.0
 BLASLIB   : -L/opt/intel/mkl/lib/intel64 -lmkl_intel_ilp64 -lmkl_sequential -lmkl_core
 id        : emory

 Nodes     nprocs
 node22       3
 Number of processes for MPI-2 version of Molpro:   nprocs(total)=    4   nprocs(compute)=    3   nprocs(helper)=    1
 ga_uses_ma=false, calling ma_init with nominal heap.
 GA-space will be limited to   8.0 MW (determined by -G option)

 Using customized tuning parameters: mindgm=7; mindgv=32; mindgc=1; mindgr=1; noblas=0; mincuda=1000; minvec=7
 default implementation of scratch files=sf  

 ***,co2h2o
 memory,100,m
 basis avtz
 geomtype = xyz
 geometry = {
 6
       0.00000000
 O     0.02747900    1.16001200    0.00000000
 O    -0.00936500   -1.16396300    0.00000000
 O     5.02532684   -0.02290959    0.00000000
 H     5.41442184    0.41836441    0.75746400
 H     5.41442184    0.41836441   -0.75746400
 C     0.02536600   -0.00312200    0.00000000
 }
 hf
 ccsd(t)-f12
 ---

 Variables initialized (665), CPU time= 0.01 sec
 Commands  initialized (462), CPU time= 0.00 sec, 486 directives.
 Default parameters read. Elapsed time= 0.03 sec

 Checking input...
 Passed
1


                                         ***  PROGRAM SYSTEM MOLPRO  ***
                         Copyright, University College Cardiff Consultants Limited, 2008

                                    Version 2010.1 linked 9 Dec 2014 15:06:28 


 **********************************************************************************************************************************
 LABEL *   co2h2o                                                                        
 Linux-2.6.32-504.el6.x86_64/node22(x86_64) 64 bit mpp version                           DATE: 14-Dec-16          TIME: 23:37:07  
 **********************************************************************************************************************************

 Patch level:      19
 **********************************************************************************************************************************

 Variable memory set to  100000000 words,  buffer space   230000 words

 SETTING BASIS          =    AVTZ
 SETTING GEOMTYPE       =    XYZ

Geometry recognized as XYZ



 Recomputing integrals since basis changed


 Using spherical harmonics

 Library entry O      S aug-cc-pVTZ          selected for orbital group  1
 Library entry O      P aug-cc-pVTZ          selected for orbital group  1
 Library entry O      D aug-cc-pVTZ          selected for orbital group  1
 Library entry O      F aug-cc-pVTZ          selected for orbital group  1
 Library entry H      S aug-cc-pVTZ          selected for orbital group  2
 Library entry H      P aug-cc-pVTZ          selected for orbital group  2
 Library entry H      D aug-cc-pVTZ          selected for orbital group  2
 Library entry C      S aug-cc-pVTZ          selected for orbital group  3
 Library entry C      P aug-cc-pVTZ          selected for orbital group  3
 Library entry C      D aug-cc-pVTZ          selected for orbital group  3
 Library entry C      F aug-cc-pVTZ          selected for orbital group  3

1PROGRAM * SEWARD (Integral evaluation for generally contracted gaussian basis sets)     Author: Roland Lindh, 1990

 Geometry written to block  1 of record 700


 Point group  Cs  



 ATOMIC COORDINATES

 NR  ATOM    CHARGE       X              Y              Z

   1  O       8.00    0.051927784    2.192104989    0.000000000
   2  O       8.00   -0.017697285   -2.199571297    0.000000000
   3  O       8.00    9.496491448   -0.043292851    0.000000000
   4  H       1.00   10.231774438    0.790594158    1.431399514
   5  H       1.00   10.231774438    0.790594158   -1.431399514
   6  C       6.00    0.047934793   -0.005899725    0.000000000

 Bond lengths in Bohr (Angstrom)

 1-6  2.198008341  2-6  2.194653170  3-4  1.812432947  3-5  1.812432947
     (1.163135919)     (1.161360439)     (0.959098208)     (0.959098208)

 Bond angles

  1-6-2  178.39037465   4-3-5  104.32746287

 NUCLEAR CHARGE:                   32
 NUMBER OF PRIMITIVE AOS:         322
 NUMBER OF SYMMETRY AOS:          282
 NUMBER OF CONTRACTIONS:          230   ( 143A'  +  87A"  )
 NUMBER OF CORE ORBITALS:           4   (   4A'  +   0A"  )
 NUMBER OF VALENCE ORBITALS:       18   (  13A'  +   5A"  )


 NUCLEAR REPULSION ENERGY   89.88325370


 Eigenvalues of metric

         1 0.349E-03 0.365E-03 0.383E-03 0.898E-03 0.921E-03 0.173E-02 0.176E-02 0.314E-02
         2 0.392E-03 0.164E-02 0.318E-02 0.348E-02 0.499E-02 0.622E-02 0.998E-02 0.124E-01


 Contracted 2-electron integrals neglected if value below      1.0D-11
 AO integral compression algorithm  1   Integral accuracy      1.0D-11

     482.607 MB (compressed) written to integral file ( 28.5%)

     Node minimum: 154.141 MB, node maximum: 169.083 MB


 NUMBER OF SORTED TWO-ELECTRON INTEGRALS:   59530350.     BUFFER LENGTH:  32768
 NUMBER OF SEGMENTS:   4  SEGMENT LENGTH:   15999984      RECORD LENGTH: 524288

 Memory used in sort:      16.56 MW

 SORT1 READ   211472491. AND WROTE    36480066. INTEGRALS IN    106 RECORDS. CPU TIME:     2.57 SEC, REAL TIME:     2.95 SEC
 SORT2 READ   110264143. AND WROTE   178576926. INTEGRALS IN   1824 RECORDS. CPU TIME:     0.95 SEC, REAL TIME:     1.29 SEC

 Node minimum:    59520934.  Node maximum:    59530350. integrals

 OPERATOR DM      FOR CENTER  0  COORDINATES:    0.000000    0.000000    0.000000


 **********************************************************************************************************************************
 DATASETS  * FILE   NREC   LENGTH (MB)   RECORD NAMES
              1      18        3.71       500      610      700      900      950      970     1000      129      960     1100   
                                          VAR    BASINP    GEOM    SYMINP    ZMAT    AOBASIS   BASIS     P2S    ABASIS      S 
                                         1400     1410     1200     1210     1080     1600     1650     1700   
                                           T        V       H0       H01     AOSYM     SMH    MOLCAS    OPER   

 PROGRAMS   *        TOTAL       INT
 CPU TIMES  *         6.57      6.49
 REAL TIME  *         7.43 SEC
 DISK USED  *         1.78 GB      
 GA USED    *         0.00 MB       (max)       0.00 MB       (current)
 **********************************************************************************************************************************

1PROGRAM * RHF-SCF (CLOSED SHELL)       Authors: W. Meyer, H.-J. Werner


 NUMBER OF ELECTRONS:      16+   16-
 CONVERGENCE THRESHOLDS:    1.00E-05 (Density)    1.00E-07 (Energy)
 MAX. NUMBER OF ITERATIONS:       60
 INTERPOLATION TYPE:            DIIS
 INTERPOLATION STEPS:              2 (START)      1 (STEP)
 LEVEL SHIFTS:                  0.00 (CLOSED)  0.00 (OPEN) 



 Orbital guess generated from atomic densities. Full valence occupancy:   17   5

 Molecular orbital dump at record        2100.2

 Initial alpha occupancy:  13   3
 Initial beta  occupancy:  13   3
 Wave function symmetry:    1

 ITERATION    DDIFF          GRAD             ENERGY        2-EL.EN.            DIPOLE MOMENTS         DIIS
    1      0.000D+00      0.000D+00      -263.66111402    375.479295    0.79982    0.84411    0.00000    0
    2      0.000D+00      0.641D-02      -263.72627209    370.874457    0.48329    0.48464    0.00000    1
    3      0.103D-01      0.435D-02      -263.76930250    373.432650    0.56258    0.57353    0.00000    2
    4      0.423D-02      0.411D-03      -263.76979778    373.222461    0.56445    0.57540    0.00000    3
    5      0.494D-03      0.120D-03      -263.76985590    373.223436    0.56118    0.57251    0.00000    4
    6      0.186D-03      0.484D-04      -263.76986315    373.238181    0.56165    0.57232    0.00000    5
    7      0.616D-04      0.119D-04      -263.76986388    373.229809    0.56137    0.57236    0.00000    6
    8      0.202D-04      0.278D-05      -263.76986393    373.230974    0.56137    0.57208    0.00000    7
    9      0.550D-05      0.151D-05      -263.76986393    373.230905    0.56136    0.57231    0.00000    0

 Final occupancy:  13   3

 !RHF STATE 1.1 Energy               -263.769863933366
 Nuclear energy                        89.88325370
 One-electron energy                 -540.26856998
 Two-electron energy                  186.61545235
 Virial quotient                       -1.00183770
 !RHF STATE 1.1 Dipole moment           0.56135711     0.57230646     0.00000000
 Dipole moment /Debye                   1.42673400     1.45456266     0.00000000

 Orbital energies:

         1.1          2.1          3.1          4.1          5.1          6.1          7.1          8.1          9.1         10.1
    -20.647211   -20.647108   -20.570023   -11.456094    -1.524774    -1.471707    -1.355214    -0.795210    -0.737480    -0.708694

        11.1         12.1         13.1         14.1         15.1
     -0.587555    -0.538526    -0.512776     0.027801     0.056402

         1.2          2.2          3.2          4.2          5.2
     -0.718893    -0.708926    -0.538641     0.046176     0.081626


 **********************************************************************************************************************************
 DATASETS  * FILE   NREC   LENGTH (MB)   RECORD NAMES
              1      18        3.72       500      610      700      900      950      970     1000      129      960     1100   
                                          VAR    BASINP    GEOM    SYMINP    ZMAT    AOBASIS   BASIS     P2S    ABASIS      S 
                                         1400     1410     1200     1210     1080     1600     1650     1700   
                                           T        V       H0       H01     AOSYM     SMH    MOLCAS    OPER   

              2       3        0.94       700     1000     2100   
                                         GEOM     BASIS     RHF  

 PROGRAMS   *        TOTAL        HF       INT
 CPU TIMES  *        10.45      3.88      6.49
 REAL TIME  *        11.67 SEC
 DISK USED  *         1.81 GB      
 SF USED    *         0.11 MB      
 GA USED    *         0.00 MB       (max)       0.00 MB       (current)
 **********************************************************************************************************************************


1PROGRAM * CCSD (Closed-shell coupled cluster)     Authors: C. Hampel, H.-J. Werner, 1991, M. Deegan, P.J. Knowles, 1992

                                  CCSD-F12 implementation by  H.-J. Werner, 2007

                   Density fitting integral evaluation by F.R. Manby, 2003,2007, G. Knizia, 2010

 Basis set CC-PVTZ/JKFIT generated.      Number of basis functions:   376 
 Basis set AUG-CC-PVTZ/MP2FIT generated. Number of basis functions:   516 

 Convergence thresholds:  THRVAR = 1.00D-08  THRDEN = 1.00D-06

 CCSD(T)     terms to be evaluated (factor= 1.000)


 Number of core orbitals:           4 (   4   0 )
 Number of closed-shell orbitals:  12 (   9   3 )
 Number of external orbitals:     214 ( 130  84 )

 Molecular orbitals read from record     2100.2  Type=RHF/CANONICAL (state 1.1)

 MP2-F12 correlation treatment (H.-J. Werner, 2006)
 --------------------------------------------------

 Using MP2-F12 with ansatz 3C(FIX)

 Using projected zeroth-order Hamiltonian (+Z)

 FOCKRIB=T FOCKRIC=T FOCKRIP=T CABSP=T CABSA=T CABSK=T CABSF=T GBC=F EBC=F DMAT=T NOFIK=T NOPAO=1 SOLVE=-1  USEPAO=0
 EXCH_A= T EXCH_B= F EXCH_C= F EXCH_P= F
 
 Geminal basis:    OPTFULL  GEM_TYPE=SLATER  BETA=1.0  NGEM=6

 Optimizing Gaussian exponents for each gem_beta

 Geminal optimization for beta= 1.0000
 Weight function:   m=0, omega= 1.4646

 Augmented Hessian optimization of geminal fit. Trust ratio= 0.40000
 Convergence reached after   2 iterations. Final gradient= 8.24D-16, Step= 4.32D-06, Delta= 1.28D-09
 
 Alpha:                 0.19532     0.81920     2.85917     9.50073    35.69989   197.79328
 Coeff:                 0.27070     0.30552     0.18297     0.10986     0.06810     0.04224
 

 Symmetry turned off. Reference energy:       -263.769863933366

 All pairs explicitly correlated. Number of r12-pairs:           78
 
 AO(A)-basis ORBITAL           loaded. Number of functions:     230
 RI(R)-basis CC-PVTZ/JKFIT     loaded. Number of functions:     376
 DF-basis CC-PVTZ/JKFIT        loaded. Number of functions:     376

 Screening thresholds:   THRAO=  1.00D-10  THRMO=  1.00D-09  THRPROD=  1.00D-09
                         THRSW=  1.00D-05  THROV=  1.00D-12  THRF12=   1.00D-08

 CPU time for Fock operators                      0.91 sec
 
 Construction of ABS:
 Smallest eigenvalue of S          2.57E-04  (threshold= 1.00E-08)
 Ratio eigmin/eigmax               1.83E-06  (threshold= 1.00E-09)
 Smallest eigenvalue of S kept     2.57E-04  (threshold= 2.57E-04, 0 functions deleted, 376 kept)
 
 Construction of CABS:
 Smallest eigenvalue of S          2.30E-08  (threshold= 1.00E-08)
 Ratio eigmin/eigmax               2.30E-08  (threshold= 1.00E-09)
 Smallest eigenvalue of S kept     2.30E-08  (threshold= 2.30E-08, 0 functions deleted, 376 kept)
 
 CPU time for CABS singles                        0.16 sec

 CABS-singles contribution of  -0.01592607 patched into reference energy.
 New reference energy        -263.78579001
 
 AO(A)-basis ORBITAL           loaded. Number of functions:     230
 RI(R)-basis CC-PVTZ/JKFIT     loaded. Number of functions:     376
 DF-basis AUG-CC-PVTZ/MP2FIT   loaded. Number of functions:     516

 Screening thresholds:   THRAO=  1.00D-10  THRMO=  1.00D-09  THRPROD=  1.00D-09
                         THRSW=  1.00D-05  THROV=  1.00D-12  THRF12=   1.00D-08

 CPU time for 3-index integral evaluation         2.29 sec
 CPU time for first  half transformation          0.27 sec (11507.7 MFLOP/sec)
 CPU time for second half transformation          0.02 sec ( 5756.3 MFLOP/sec)
 CPU time for sorting                             0.21 sec
 CPU time for fitting                             0.04 sec (34826.3 MFLOP/sec)
 CPU time for tilde quantities                    0.07 sec (26412.6 MFLOP/sec)
 CPU time for assembly                            0.78 sec (30038.7 MFLOP/sec)
 CPU time for tranop_f12                          0.85 sec (36333.3 MFLOP/sec)
 CPU time for f12 integrals (total)               6.53 sec
 F12-matrices built in  3 passes.
 F12-matrices built in  3 passes.
 F12-matrices built in  3 passes.
 F12-matrices built in  3 passes.
 FC-matrix built in  3 passes.
 CPU time for f12 matrices (total)                0.44 sec

 Diagonal F12 approximation with fixed coefficients:  TSING= 0.500,  TTRIP= 0.250 (scaled by -1/beta)

 DF-MP2-F12 energy corrections:
 ------------------------------
 Approx.                                    Singlet             Triplet             Total
 DF-MP2-F12/3*C(DX,FIX)                -0.097430846666     -0.016930491746     -0.114361338411
 DF-MP2-F12/3*C(FIX)                   -0.079849104448     -0.013393163601     -0.093242268049
 DF-MP2-F12/3C(FIX)                    -0.080211679900     -0.013417015392     -0.093628695292

 DF-MP2-F12 correlation energies:
 --------------------------------
 Approx.                                    Singlet             Triplet             Ecorr            Total Energy
 DF-MP2                                -0.537768885149     -0.343133365355     -0.880902250504   -264.666692256563
 DF-MP2-F12/3*C(DX,FIX)                -0.635199731815     -0.360063857101     -0.995263588916   -264.781053594974
 DF-MP2-F12/3*C(FIX)                   -0.617617989597     -0.356526528956     -0.974144518553   -264.759934524612
 DF-MP2-F12/3C(FIX)                    -0.617980565049     -0.356550380747     -0.974530945796   -264.760320951855

 SCS-DF-MP2 energies (F_SING= 1.20000  F_TRIP= 0.62222  F_PARALLEL= 0.33333):
 ----------------------------------------------------------------------------
 SCS-DF-MP2                            -0.858827867289   -264.644617873347
 SCS-DF-MP2-F12/3*C(DX,FIX)            -0.986279411485   -264.772069417544
 SCS-DF-MP2-F12/3*C(FIX)               -0.962980316645   -264.748770322704
 SCS-DF-MP2-F12/3C(FIX)                -0.963430248302   -264.749220254360

 Symmetry restored.
 Symmetry transformation completed.

 Number of N-1 electron functions:              12
 Number of N-2 electron functions:              78
 Number of singly external CSFs:              1422
 Number of doubly external CSFs:           1668984
 Total number of CSFs:                     1670407

 Pair and operator lists are different

 Length of J-op  integral file:             466.33 MB
 Length of K-op  integral file:             525.76 MB
 Length of 3-ext integral record:             0.00 MB

 Memory could be reduced to 76.19 Mwords without degradation in triples

 Integral transformation finished. Total CPU:   4.03 sec, npass=  1  Memory used:  26.50 MW

 Reference energy:                   -263.78579001

 Adding F12 terms to K(Cij), methodcc=6,  factor=1.0

 ITER.      SQ.NORM     CORR.ENERGY   TOTAL ENERGY   ENERGY CHANGE        DEN1      VAR(S)    VAR(P)  DIIS     TIME
   1      1.20218748    -0.86284856  -264.64863856     0.01806986     0.04670095  0.72D-02  0.56D-02  1  1    15.06
   2      1.21650473    -0.85862677  -264.64441677     0.00422179    -0.02015409  0.87D-04  0.59D-03  2  2    17.83
   3      1.22187212    -0.85872467  -264.64451467    -0.00009790    -0.00236699  0.13D-03  0.32D-04  3  3    20.59
   4      1.22467764    -0.85859689  -264.64438689     0.00012778    -0.00141255  0.76D-05  0.41D-05  4  4    23.91
   5      1.22570880    -0.85855925  -264.64434925     0.00003764    -0.00036652  0.56D-06  0.29D-06  5  5    26.97
   6      1.22587127    -0.85853237  -264.64432238     0.00002687    -0.00000807  0.40D-07  0.24D-07  6  6    30.11
   7      1.22590074    -0.85852995  -264.64431996     0.00000242    -0.00000623  0.26D-08  0.40D-08  6  4    34.09
   8      1.22590108    -0.85852946  -264.64431946     0.00000049     0.00000194  0.40D-09  0.27D-09  6  1    36.66
   9      1.22590171    -0.85852953  -264.64431953    -0.00000007     0.00000056  0.26D-10  0.21D-10  6  2    39.70

 Norm of t1 vector:      0.10601125      S-energy:     0.00000019      T1 diagnostic:  0.01530141
                                                                       D1 diagnostic:  0.04499255

 Adding energy correction from Wij-K(Fij), methodcc=6  factor=1.0
 
  CCSD correlation energy              -0.858529525184
  MP2-F12 correction (uncoupled)       -0.092469951192
  C*T doubles correction               -0.001475820379
  f12b correction                       0.015405911586


 Total CPU time for triples:     90.63 sec


 RESULTS
 =======

  Reference energy                   -263.769863933366
  F12 singles correction               -0.015926072692

 F12 singles corrections added to reference energy

  New reference energy               -263.785790006058

  F12a singlet correction              -0.080410523867
  F12a triplet correction              -0.013535247704
  F12a total correction                -0.093945771571

 F12a corrections for ansatz F12/3C(FIX) added to CCSD energy
 
  CCSD-F12a singlet pair energy        -0.641920606815
  CCSD-F12a triplet pair energy        -0.310554884204
  CCSD-F12a correlation energy         -0.952475296755

  Triples (T) contribution             -0.037654803168
  Total correlation energy             -0.990130099923

  CCSD-F12a total energy             -264.738265302814
  CCSD[T]-F12a energy                -264.778464029095
  CCSD-T-F12a energy                 -264.774982720101
 !CCSD(T)-F12a total energy          -264.775920105982

 F12b corrections for ansatz F12/3C(FIX) added to CCSD(T)-F12a energy

  CCSD-F12b singlet pair energy        -0.627737951697
  CCSD-F12b triplet pair energy        -0.309331627735
  CCSD-F12b correlation energy         -0.937069385169

  Triples (T) contribution             -0.037654803168
  Total correlation energy             -0.974724188337

  CCSD-F12b total energy             -264.722859391228
  CCSD[T]-F12b energy                -264.763058117509
  CCSD-T-F12b energy                 -264.759576808515
 !CCSD(T)-F12b total energy          -264.760514194395

 Timing summary (sec):

 STEP                 CPU(USER)    SYS     CPU(TOT)    WALL
 Transformation          4.06      0.51      4.57      4.57
 CCSD iterations        27.20      1.67     28.87     28.85
 Triples                90.63      1.93     92.56     92.78
 MP2-F12                 8.46      1.13      9.59      9.59
 F12b energy             1.97      0.04      2.01      2.01

 Program statistics:

 Available memory in ccsd:                99998934
 Min. memory needed in ccsd:               4419579
 Max. memory used in ccsd:                 5922321
 Max. memory used in cckext:               6231049 (10 integral passes)



 **********************************************************************************************************************************
 DATASETS  * FILE   NREC   LENGTH (MB)   RECORD NAMES
              1      20      268.24       500      610      700      900      950      970     1000      129      960     1100   
                                          VAR    BASINP    GEOM    SYMINP    ZMAT    AOBASIS   BASIS     P2S    ABASIS      S 
                                         1400     1410     1200     1210     1080     1600     1650     1700      960(1)  1380   
                                           T        V       H0       H01     AOSYM     SMH    MOLCAS    OPER    ABASIS    JKOP   

              2       5        1.51       700     1000     2100     7360     7350   
                                         GEOM     BASIS     RHF    F12ABS    EF12   

 PROGRAMS   *        TOTAL   CCSD(T)        HF       INT
 CPU TIMES  *       143.07    132.62      3.88      6.49
 REAL TIME  *       149.79 SEC
 DISK USED  *         2.24 GB      
 SF USED    *         1.52 GB      
 GA USED    *         2.40 MB       (max)       0.00 MB       (current)
 **********************************************************************************************************************************

     CCSD(T)-F12        HF-SCF  
   -264.76051419   -263.76986393
 **********************************************************************************************************************************
 Variable memory released
