
 Primary working directories    : /scratch/kee
 Secondary working directories  : /scratch/kee
 Wavefunction directory         : /home/kee/wfu/
 Main file repository           : /scratch/kee/

 ARCHNAME  : Linux/x86_64
 FC        : /opt/intel/composer_xe_2015.0.090/bin/intel64/ifort
 FCVERSION : 15.0.0
 BLASLIB   : -L/opt/intel/mkl/lib/intel64 -lmkl_intel_ilp64 -lmkl_sequential -lmkl_core
 id        : emory

 Nodes     nprocs
 node18       3
 Number of processes for MPI-2 version of Molpro:   nprocs(total)=    4   nprocs(compute)=    3   nprocs(helper)=    1
 ga_uses_ma=false, calling ma_init with nominal heap.
 GA-space will be limited to   8.0 MW (determined by -G option)

 Using customized tuning parameters: mindgm=7; mindgv=32; mindgc=1; mindgr=1; noblas=0; mincuda=1000; minvec=7
 default implementation of scratch files=sf  

 ***,co2h2o
 memory,100,m
 basis avtz
 geomtype = xyz
 geometry = {
 6
    -264.76489694
 O     0.82869278    1.16169550    0.00000000
 O     0.82658011   -1.16233555    0.00000000
 O    -4.69123439    0.00185705    0.00000000
 H    -5.27486740    0.76245170    0.00000000
 H    -5.27459929   -0.75894487    0.00000000
 C     0.80876519   -0.00029961    0.00000000
 }
 hf
 ccsd(t)-f12
 ---

 Variables initialized (665), CPU time= 0.01 sec
 Commands  initialized (462), CPU time= 0.01 sec, 486 directives.
 Default parameters read. Elapsed time= 0.06 sec

 Checking input...
 Passed
1


                                         ***  PROGRAM SYSTEM MOLPRO  ***
                         Copyright, University College Cardiff Consultants Limited, 2008

                                    Version 2010.1 linked 9 Dec 2014 15:06:28 


 **********************************************************************************************************************************
 LABEL *   co2h2o                                                                        
 Linux-2.6.32-504.el6.x86_64/node18(x86_64) 64 bit mpp version                           DATE: 11-Dec-16          TIME: 23:30:00  
 **********************************************************************************************************************************

 Patch level:      19
 **********************************************************************************************************************************

 Variable memory set to  100000000 words,  buffer space   230000 words

 SETTING BASIS          =    AVTZ
 SETTING GEOMTYPE       =    XYZ

Geometry recognized as XYZ



 Recomputing integrals since basis changed


 Using spherical harmonics

 Library entry O      S aug-cc-pVTZ          selected for orbital group  1
 Library entry O      P aug-cc-pVTZ          selected for orbital group  1
 Library entry O      D aug-cc-pVTZ          selected for orbital group  1
 Library entry O      F aug-cc-pVTZ          selected for orbital group  1
 Library entry H      S aug-cc-pVTZ          selected for orbital group  2
 Library entry H      P aug-cc-pVTZ          selected for orbital group  2
 Library entry H      D aug-cc-pVTZ          selected for orbital group  2
 Library entry C      S aug-cc-pVTZ          selected for orbital group  3
 Library entry C      P aug-cc-pVTZ          selected for orbital group  3
 Library entry C      D aug-cc-pVTZ          selected for orbital group  3
 Library entry C      F aug-cc-pVTZ          selected for orbital group  3

1PROGRAM * SEWARD (Integral evaluation for generally contracted gaussian basis sets)     Author: Roland Lindh, 1990

 Geometry written to block  1 of record 700


 Point group  Cs  



 ATOMIC COORDINATES

 NR  ATOM    CHARGE       X              Y              Z

   1  O       8.00    1.566002401    2.195286343    0.000000000
   2  O       8.00    1.562010034   -2.196495862    0.000000000
   3  O       8.00   -8.865148215    0.003509316    0.000000000
   4  H       1.00   -9.968054766    1.440824901    0.000000000
   5  H       1.00   -9.967548111   -1.434197953    0.000000000
   6  C       6.00    1.528344714   -0.000566181    0.000000000

 Bond lengths in Bohr (Angstrom)

 1-6  2.196175405  2-6  2.196187724  3-4  1.811706088  3-5  1.811708509
     (1.162165971)     (1.162172490)     (0.958713571)     (0.958714852)

 Bond angles

  1-6-2  178.13918425   4-3-5  105.01947441

 NUCLEAR CHARGE:                   32
 NUMBER OF PRIMITIVE AOS:         322
 NUMBER OF SYMMETRY AOS:          282
 NUMBER OF CONTRACTIONS:          230   ( 152A'  +  78A"  )
 NUMBER OF CORE ORBITALS:           4   (   4A'  +   0A"  )
 NUMBER OF VALENCE ORBITALS:       18   (  14A'  +   4A"  )


 NUCLEAR REPULSION ENERGY   87.83597318


 Eigenvalues of metric

         1 0.346E-03 0.362E-03 0.389E-03 0.396E-03 0.898E-03 0.921E-03 0.165E-02 0.169E-02
         2 0.318E-02 0.348E-02 0.586E-02 0.124E-01 0.135E-01 0.286E-01 0.296E-01 0.314E-01


 Contracted 2-electron integrals neglected if value below      1.0D-11
 AO integral compression algorithm  1   Integral accuracy      1.0D-11

     426.508 MB (compressed) written to integral file ( 26.0%)

     Node minimum: 130.286 MB, node maximum: 153.092 MB


 NUMBER OF SORTED TWO-ELECTRON INTEGRALS:   59950380.     BUFFER LENGTH:  32768
 NUMBER OF SEGMENTS:   4  SEGMENT LENGTH:   15995235      RECORD LENGTH: 524288

 Memory used in sort:      16.55 MW

 SORT1 READ   204609153. AND WROTE    32405473. INTEGRALS IN     95 RECORDS. CPU TIME:     2.70 SEC, REAL TIME:     3.05 SEC
 SORT2 READ    97616759. AND WROTE   179836431. INTEGRALS IN   1638 RECORDS. CPU TIME:     1.01 SEC, REAL TIME:     1.32 SEC

 Node minimum:    59940574.  Node maximum:    59950380. integrals

 OPERATOR DM      FOR CENTER  0  COORDINATES:    0.000000    0.000000    0.000000


 **********************************************************************************************************************************
 DATASETS  * FILE   NREC   LENGTH (MB)   RECORD NAMES
              1      18        3.74       500      610      700      900      950      970     1000      129      960     1100   
                                          VAR    BASINP    GEOM    SYMINP    ZMAT    AOBASIS   BASIS     P2S    ABASIS      S 
                                         1400     1410     1200     1210     1080     1600     1650     1700   
                                           T        V       H0       H01     AOSYM     SMH    MOLCAS    OPER   

 PROGRAMS   *        TOTAL       INT
 CPU TIMES  *         7.78      7.66
 REAL TIME  *         8.72 SEC
 DISK USED  *         1.59 GB      
 GA USED    *         0.00 MB       (max)       0.00 MB       (current)
 **********************************************************************************************************************************

1PROGRAM * RHF-SCF (CLOSED SHELL)       Authors: W. Meyer, H.-J. Werner


 NUMBER OF ELECTRONS:      16+   16-
 CONVERGENCE THRESHOLDS:    1.00E-05 (Density)    1.00E-07 (Energy)
 MAX. NUMBER OF ITERATIONS:       60
 INTERPOLATION TYPE:            DIIS
 INTERPOLATION STEPS:              2 (START)      1 (STEP)
 LEVEL SHIFTS:                  0.00 (CLOSED)  0.00 (OPEN) 



 Orbital guess generated from atomic densities. Full valence occupancy:   18   4

 Molecular orbital dump at record        2100.2

 Initial alpha occupancy:  13   3
 Initial beta  occupancy:  13   3
 Wave function symmetry:    1

 ITERATION    DDIFF          GRAD             ENERGY        2-EL.EN.            DIPOLE MOMENTS         DIIS
    1      0.000D+00      0.000D+00      -263.66122669    371.443921   -1.18424   -0.00012    0.00000    0
    2      0.000D+00      0.628D-02      -263.72632858    366.797175   -0.70533   -0.00009    0.00000    1
    3      0.101D-01      0.426D-02      -263.76931881    369.365480   -0.82341   -0.00008    0.00000    2
    4      0.414D-02      0.402D-03      -263.76981377    369.155953   -0.82651   -0.00009    0.00000    3
    5      0.485D-03      0.117D-03      -263.76987178    369.156525   -0.82130   -0.00009    0.00000    4
    6      0.181D-03      0.473D-04      -263.76987897    369.171342   -0.82200   -0.00009    0.00000    5
    7      0.605D-04      0.115D-04      -263.76987970    369.162914   -0.82156   -0.00009    0.00000    6
    8      0.197D-04      0.254D-05      -263.76987975    369.164221   -0.82157   -0.00009    0.00000    7
    9      0.541D-05      0.851D-06      -263.76987975    369.164022   -0.82154   -0.00009    0.00000    0

 Final occupancy:  13   3

 !RHF STATE 1.1 Energy               -263.769879753089
 Nuclear energy                        87.83597318
 One-electron energy                 -536.18786378
 Two-electron energy                  184.58201086
 Virial quotient                       -1.00183331
 !RHF STATE 1.1 Dipole moment          -0.82153769    -0.00008780     0.00000000
 Dipole moment /Debye                  -2.08800377    -0.00022316     0.00000000

 Orbital energies:

         1.1          2.1          3.1          4.1          5.1          6.1          7.1          8.1          9.1         10.1
    -20.646854   -20.646808   -20.569057   -11.455740    -1.524515    -1.471438    -1.354312    -0.794888    -0.737173    -0.719827

        11.1         12.1         13.1         14.1         15.1
     -0.708457    -0.585714    -0.538225     0.028035     0.047035

         1.2          2.2          3.2          4.2          5.2
     -0.708625    -0.538314    -0.511975     0.078194     0.159269


 **********************************************************************************************************************************
 DATASETS  * FILE   NREC   LENGTH (MB)   RECORD NAMES
              1      18        3.76       500      610      700      900      950      970     1000      129      960     1100   
                                          VAR    BASINP    GEOM    SYMINP    ZMAT    AOBASIS   BASIS     P2S    ABASIS      S 
                                         1400     1410     1200     1210     1080     1600     1650     1700   
                                           T        V       H0       H01     AOSYM     SMH    MOLCAS    OPER   

              2       3        0.96       700     1000     2100   
                                         GEOM     BASIS     RHF  

 PROGRAMS   *        TOTAL        HF       INT
 CPU TIMES  *        12.04      4.26      7.66
 REAL TIME  *        13.24 SEC
 DISK USED  *         1.61 GB      
 SF USED    *         0.12 MB      
 GA USED    *         0.00 MB       (max)       0.00 MB       (current)
 **********************************************************************************************************************************


1PROGRAM * CCSD (Closed-shell coupled cluster)     Authors: C. Hampel, H.-J. Werner, 1991, M. Deegan, P.J. Knowles, 1992

                                  CCSD-F12 implementation by  H.-J. Werner, 2007

                   Density fitting integral evaluation by F.R. Manby, 2003,2007, G. Knizia, 2010

 Basis set CC-PVTZ/JKFIT generated.      Number of basis functions:   376 
 Basis set AUG-CC-PVTZ/MP2FIT generated. Number of basis functions:   516 

 Convergence thresholds:  THRVAR = 1.00D-08  THRDEN = 1.00D-06

 CCSD(T)     terms to be evaluated (factor= 1.000)


 Number of core orbitals:           4 (   4   0 )
 Number of closed-shell orbitals:  12 (   9   3 )
 Number of external orbitals:     214 ( 139  75 )

 Molecular orbitals read from record     2100.2  Type=RHF/CANONICAL (state 1.1)

 MP2-F12 correlation treatment (H.-J. Werner, 2006)
 --------------------------------------------------

 Using MP2-F12 with ansatz 3C(FIX)

 Using projected zeroth-order Hamiltonian (+Z)

 FOCKRIB=T FOCKRIC=T FOCKRIP=T CABSP=T CABSA=T CABSK=T CABSF=T GBC=F EBC=F DMAT=T NOFIK=T NOPAO=1 SOLVE=-1  USEPAO=0
 EXCH_A= T EXCH_B= F EXCH_C= F EXCH_P= F
 
 Geminal basis:    OPTFULL  GEM_TYPE=SLATER  BETA=1.0  NGEM=6

 Optimizing Gaussian exponents for each gem_beta

 Geminal optimization for beta= 1.0000
 Weight function:   m=0, omega= 1.4646

 Augmented Hessian optimization of geminal fit. Trust ratio= 0.40000
 Convergence reached after   2 iterations. Final gradient= 8.24D-16, Step= 4.32D-06, Delta= 1.28D-09
 
 Alpha:                 0.19532     0.81920     2.85917     9.50073    35.69989   197.79328
 Coeff:                 0.27070     0.30552     0.18297     0.10986     0.06810     0.04224
 

 Symmetry turned off. Reference energy:       -263.769879753089

 All pairs explicitly correlated. Number of r12-pairs:           78
 
 AO(A)-basis ORBITAL           loaded. Number of functions:     230
 RI(R)-basis CC-PVTZ/JKFIT     loaded. Number of functions:     376
 DF-basis CC-PVTZ/JKFIT        loaded. Number of functions:     376

 Screening thresholds:   THRAO=  1.00D-10  THRMO=  1.00D-09  THRPROD=  1.00D-09
                         THRSW=  1.00D-05  THROV=  1.00D-12  THRF12=   1.00D-08

 CPU time for Fock operators                      1.06 sec
 
 Construction of ABS:
 Smallest eigenvalue of S          2.57E-04  (threshold= 1.00E-08)
 Ratio eigmin/eigmax               1.83E-06  (threshold= 1.00E-09)
 Smallest eigenvalue of S kept     2.57E-04  (threshold= 2.57E-04, 0 functions deleted, 376 kept)
 
 Construction of CABS:
 Smallest eigenvalue of S          2.30E-08  (threshold= 1.00E-08)
 Ratio eigmin/eigmax               2.30E-08  (threshold= 1.00E-09)
 Smallest eigenvalue of S kept     2.30E-08  (threshold= 2.30E-08, 0 functions deleted, 376 kept)
 
 CPU time for CABS singles                        0.18 sec

 CABS-singles contribution of  -0.01592162 patched into reference energy.
 New reference energy        -263.78580137
 
 AO(A)-basis ORBITAL           loaded. Number of functions:     230
 RI(R)-basis CC-PVTZ/JKFIT     loaded. Number of functions:     376
 DF-basis AUG-CC-PVTZ/MP2FIT   loaded. Number of functions:     516

 Screening thresholds:   THRAO=  1.00D-10  THRMO=  1.00D-09  THRPROD=  1.00D-09
                         THRSW=  1.00D-05  THROV=  1.00D-12  THRF12=   1.00D-08

 CPU time for 3-index integral evaluation         2.46 sec
 CPU time for first  half transformation          0.28 sec ( 9717.9 MFLOP/sec)
 CPU time for second half transformation          0.02 sec ( 5187.8 MFLOP/sec)
 CPU time for sorting                             0.21 sec
 CPU time for fitting                             0.05 sec (27861.0 MFLOP/sec)
 CPU time for tilde quantities                    0.11 sec (16808.0 MFLOP/sec)
 CPU time for assembly                            0.94 sec (24130.0 MFLOP/sec)
 CPU time for tranop_f12                          1.34 sec (16892.3 MFLOP/sec)
 CPU time for f12 integrals (total)               8.27 sec
 F12-matrices built in  3 passes.
 F12-matrices built in  3 passes.
 F12-matrices built in  3 passes.
 F12-matrices built in  3 passes.
 FC-matrix built in  3 passes.
 CPU time for f12 matrices (total)                0.57 sec

 Diagonal F12 approximation with fixed coefficients:  TSING= 0.500,  TTRIP= 0.250 (scaled by -1/beta)

 DF-MP2-F12 energy corrections:
 ------------------------------
 Approx.                                    Singlet             Triplet             Total
 DF-MP2-F12/3*C(DX,FIX)                -0.097446013262     -0.016932816187     -0.114378829449
 DF-MP2-F12/3*C(FIX)                   -0.079864110213     -0.013394966162     -0.093259076375
 DF-MP2-F12/3C(FIX)                    -0.080224849391     -0.013418233056     -0.093643082447

 DF-MP2-F12 correlation energies:
 --------------------------------
 Approx.                                    Singlet             Triplet             Ecorr            Total Energy
 DF-MP2                                -0.537693719847     -0.343062156596     -0.880755876443   -264.666557249076
 DF-MP2-F12/3*C(DX,FIX)                -0.635139733110     -0.359994972783     -0.995134705892   -264.780936078525
 DF-MP2-F12/3*C(FIX)                   -0.617557830061     -0.356457122758     -0.974014952818   -264.759816325451
 DF-MP2-F12/3C(FIX)                    -0.617918569239     -0.356480389652     -0.974398958890   -264.760200331523

 SCS-DF-MP2 energies (F_SING= 1.20000  F_TRIP= 0.62222  F_PARALLEL= 0.33333):
 ----------------------------------------------------------------------------
 SCS-DF-MP2                            -0.858693361254   -264.644494733887
 SCS-DF-MP2-F12/3*C(DX,FIX)            -0.986164551685   -264.771965924318
 SCS-DF-MP2-F12/3*C(FIX)               -0.962864939122   -264.748666311755
 SCS-DF-MP2-F12/3C(FIX)                -0.963312303314   -264.749113675947

 Symmetry restored.
 Symmetry transformation completed.

 Number of N-1 electron functions:              12
 Number of N-2 electron functions:              78
 Number of singly external CSFs:              1476
 Number of doubly external CSFs:           1686804
 Total number of CSFs:                     1688281

 Pair and operator lists are different

 Length of J-op  integral file:             466.42 MB
 Length of K-op  integral file:             526.62 MB
 Length of 3-ext integral record:             0.00 MB

 Memory could be reduced to 76.61 Mwords without degradation in triples

 Integral transformation finished. Total CPU:   6.13 sec, npass=  1  Memory used:  24.61 MW

 Reference energy:                   -263.78580137

 Adding F12 terms to K(Cij), methodcc=6,  factor=1.0

 ITER.      SQ.NORM     CORR.ENERGY   TOTAL ENERGY   ENERGY CHANGE        DEN1      VAR(S)    VAR(P)  DIIS     TIME
   1      1.20211835    -0.86271863  -264.64852001     0.01805359     0.04666775  0.72D-02  0.56D-02  1  1    19.92
   2      1.21642415    -0.85849788  -264.64429925     0.00422075    -0.02014240  0.86D-04  0.59D-03  2  2    23.51
   3      1.22178400    -0.85859512  -264.64439650    -0.00009724    -0.00236413  0.13D-03  0.32D-04  3  3    27.28
   4      1.22458550    -0.85846747  -264.64426884     0.00012766    -0.00141109  0.76D-05  0.41D-05  4  4    30.96
   5      1.22561518    -0.85842982  -264.64423119     0.00003765    -0.00036617  0.56D-06  0.29D-06  5  5    34.86
   6      1.22577732    -0.85840295  -264.64420433     0.00002686    -0.00000805  0.40D-07  0.24D-07  6  6    38.59
   7      1.22580666    -0.85840053  -264.64420190     0.00000242    -0.00000621  0.25D-08  0.40D-08  6  4    42.55
   8      1.22580696    -0.85840004  -264.64420142     0.00000049     0.00000194  0.39D-09  0.27D-09  6  1    45.62
   9      1.22580758    -0.85840011  -264.64420148    -0.00000007     0.00000056  0.26D-10  0.21D-10  6  2    48.75

 Norm of t1 vector:      0.10595177      S-energy:    -0.00000003      T1 diagnostic:  0.01529282
                                                                       D1 diagnostic:  0.04497376

 Adding energy correction from Wij-K(Fij), methodcc=6  factor=1.0
 
  CCSD correlation energy              -0.858400108765
  MP2-F12 correction (uncoupled)       -0.092487299336
  C*T doubles correction               -0.001474598491
  f12b correction                       0.015406657516


 Total CPU time for triples:     91.24 sec


 RESULTS
 =======

  Reference energy                   -263.769879753089
  F12 singles correction               -0.015921619544

 F12 singles corrections added to reference energy

  New reference energy               -263.785801372633

  F12a singlet correction              -0.080424946486
  F12a triplet correction              -0.013536951340
  F12a total correction                -0.093961897826

 F12a corrections for ansatz F12/3C(FIX) added to CCSD energy
 
  CCSD-F12a singlet pair energy        -0.641855252246
  CCSD-F12a triplet pair energy        -0.310506729043
  CCSD-F12a correlation energy         -0.952362006591

  Triples (T) contribution             -0.037634583995
  Total correlation energy             -0.989996590586

  CCSD-F12a total energy             -264.738163379224
  CCSD[T]-F12a energy                -264.778339802310
  CCSD-T-F12a energy                 -264.774861321217
 !CCSD(T)-F12a total energy          -264.775797963219

 F12b corrections for ansatz F12/3C(FIX) added to CCSD(T)-F12a energy

  CCSD-F12b singlet pair energy        -0.627671981465
  CCSD-F12b triplet pair energy        -0.309283342309
  CCSD-F12b correlation energy         -0.936955349075

  Triples (T) contribution             -0.037634583995
  Total correlation energy             -0.974589933070

  CCSD-F12b total energy             -264.722756721708
  CCSD[T]-F12b energy                -264.762933144794
  CCSD-T-F12b energy                 -264.759454663702
 !CCSD(T)-F12b total energy          -264.760391305703

 Timing summary (sec):

 STEP                 CPU(USER)    SYS     CPU(TOT)    WALL
 Transformation          6.16      0.64      6.80      6.80
 CCSD iterations        32.09      2.53     34.62     34.94
 Triples                91.24      1.76     93.00     92.98
 MP2-F12                10.51      1.29     11.80     11.81
 F12b energy             2.01      0.03      2.04      2.04

 Program statistics:

 Available memory in ccsd:                99998934
 Min. memory needed in ccsd:               4458306
 Max. memory used in ccsd:                 5958390
 Max. memory used in cckext:               6352469 (10 integral passes)



 **********************************************************************************************************************************
 DATASETS  * FILE   NREC   LENGTH (MB)   RECORD NAMES
              1      20      269.66       500      610      700      900      950      970     1000      129      960     1100   
                                          VAR    BASINP    GEOM    SYMINP    ZMAT    AOBASIS   BASIS     P2S    ABASIS      S 
                                         1400     1410     1200     1210     1080     1600     1650     1700      960(1)  1380   
                                           T        V       H0       H01     AOSYM     SMH    MOLCAS    OPER    ABASIS    JKOP   

              2       5        1.55       700     1000     2100     7360     7350   
                                         GEOM     BASIS     RHF    F12ABS    EF12   

 PROGRAMS   *        TOTAL   CCSD(T)        HF       INT
 CPU TIMES  *       154.13    142.09      4.26      7.66
 REAL TIME  *       162.13 SEC
 DISK USED  *         2.05 GB      
 SF USED    *         1.53 GB      
 GA USED    *         2.40 MB       (max)       0.00 MB       (current)
 **********************************************************************************************************************************

     CCSD(T)-F12        HF-SCF  
   -264.76039131   -263.76987975
 **********************************************************************************************************************************
 Variable memory released
