
 Primary working directories    : /scratch/kee
 Secondary working directories  : /scratch/kee
 Wavefunction directory         : /home/kee/wfu/
 Main file repository           : /scratch/kee/

 ARCHNAME  : Linux/x86_64
 FC        : /opt/intel/composer_xe_2015.0.090/bin/intel64/ifort
 FCVERSION : 15.0.0
 BLASLIB   : -L/opt/intel/mkl/lib/intel64 -lmkl_intel_ilp64 -lmkl_sequential -lmkl_core
 id        : emory

 Nodes     nprocs
 node18       3
 Number of processes for MPI-2 version of Molpro:   nprocs(total)=    4   nprocs(compute)=    3   nprocs(helper)=    1
 ga_uses_ma=false, calling ma_init with nominal heap.
 GA-space will be limited to   8.0 MW (determined by -G option)

 Using customized tuning parameters: mindgm=7; mindgv=32; mindgc=1; mindgr=1; noblas=0; mincuda=1000; minvec=7
 default implementation of scratch files=sf  

 ***,co2h2o
 memory,100,m
 basis avtz
 geomtype = xyz
 geometry = {
 6
    -264.76489694
 O     0.82869278    1.16169550    0.00000000
 O     0.82658011   -1.16233555    0.00000000
 O    -4.74123438    0.00187666    0.00000000
 H    -5.32486739    0.76247131    0.00000000
 H    -5.32459928   -0.75892526    0.00000000
 C     0.80876519   -0.00029961    0.00000000
 }
 hf
 ccsd(t)-f12
 ---

 Variables initialized (665), CPU time= 0.01 sec
 Commands  initialized (462), CPU time= 0.01 sec, 486 directives.
 Default parameters read. Elapsed time= 0.05 sec

 Checking input...
 Passed
1


                                         ***  PROGRAM SYSTEM MOLPRO  ***
                         Copyright, University College Cardiff Consultants Limited, 2008

                                    Version 2010.1 linked 9 Dec 2014 15:06:28 


 **********************************************************************************************************************************
 LABEL *   co2h2o                                                                        
 Linux-2.6.32-504.el6.x86_64/node18(x86_64) 64 bit mpp version                           DATE: 11-Dec-16          TIME: 23:32:54  
 **********************************************************************************************************************************

 Patch level:      19
 **********************************************************************************************************************************

 Variable memory set to  100000000 words,  buffer space   230000 words

 SETTING BASIS          =    AVTZ
 SETTING GEOMTYPE       =    XYZ

Geometry recognized as XYZ



 Recomputing integrals since basis changed


 Using spherical harmonics

 Library entry O      S aug-cc-pVTZ          selected for orbital group  1
 Library entry O      P aug-cc-pVTZ          selected for orbital group  1
 Library entry O      D aug-cc-pVTZ          selected for orbital group  1
 Library entry O      F aug-cc-pVTZ          selected for orbital group  1
 Library entry H      S aug-cc-pVTZ          selected for orbital group  2
 Library entry H      P aug-cc-pVTZ          selected for orbital group  2
 Library entry H      D aug-cc-pVTZ          selected for orbital group  2
 Library entry C      S aug-cc-pVTZ          selected for orbital group  3
 Library entry C      P aug-cc-pVTZ          selected for orbital group  3
 Library entry C      D aug-cc-pVTZ          selected for orbital group  3
 Library entry C      F aug-cc-pVTZ          selected for orbital group  3

1PROGRAM * SEWARD (Integral evaluation for generally contracted gaussian basis sets)     Author: Roland Lindh, 1990

 Geometry written to block  1 of record 700


 Point group  Cs  



 ATOMIC COORDINATES

 NR  ATOM    CHARGE       X              Y              Z

   1  O       8.00    1.566002401    2.195286343    0.000000000
   2  O       8.00    1.562010034   -2.196495862    0.000000000
   3  O       8.00   -8.959634503    0.003546373    0.000000000
   4  H       1.00  -10.062541053    1.440861959    0.000000000
   5  H       1.00  -10.062034399   -1.434160896    0.000000000
   6  C       6.00    1.528344714   -0.000566181    0.000000000

 Bond lengths in Bohr (Angstrom)

 1-6  2.196175405  2-6  2.196187724  3-4  1.811706088  3-5  1.811708509
     (1.162165971)     (1.162172490)     (0.958713571)     (0.958714852)

 Bond angles

  1-6-2  178.13918425   4-3-5  105.01947441

 NUCLEAR CHARGE:                   32
 NUMBER OF PRIMITIVE AOS:         322
 NUMBER OF SYMMETRY AOS:          282
 NUMBER OF CONTRACTIONS:          230   ( 152A'  +  78A"  )
 NUMBER OF CORE ORBITALS:           4   (   4A'  +   0A"  )
 NUMBER OF VALENCE ORBITALS:       18   (  14A'  +   4A"  )


 NUCLEAR REPULSION ENERGY   87.66174163


 Eigenvalues of metric

         1 0.346E-03 0.363E-03 0.390E-03 0.396E-03 0.898E-03 0.921E-03 0.165E-02 0.169E-02
         2 0.318E-02 0.348E-02 0.586E-02 0.124E-01 0.135E-01 0.287E-01 0.296E-01 0.314E-01


 Contracted 2-electron integrals neglected if value below      1.0D-11
 AO integral compression algorithm  1   Integral accuracy      1.0D-11

     422.576 MB (compressed) written to integral file ( 25.8%)

     Node minimum: 118.751 MB, node maximum: 159.384 MB


 NUMBER OF SORTED TWO-ELECTRON INTEGRALS:   59950380.     BUFFER LENGTH:  32768
 NUMBER OF SEGMENTS:   4  SEGMENT LENGTH:   15995235      RECORD LENGTH: 524288

 Memory used in sort:      16.55 MW

 SORT1 READ   204399025. AND WROTE    32040468. INTEGRALS IN     93 RECORDS. CPU TIME:     2.61 SEC, REAL TIME:     2.94 SEC
 SORT2 READ    96510109. AND WROTE   179836431. INTEGRALS IN   1359 RECORDS. CPU TIME:     0.97 SEC, REAL TIME:     1.25 SEC

 Node minimum:    59940574.  Node maximum:    59950380. integrals

 OPERATOR DM      FOR CENTER  0  COORDINATES:    0.000000    0.000000    0.000000


 **********************************************************************************************************************************
 DATASETS  * FILE   NREC   LENGTH (MB)   RECORD NAMES
              1      18        3.74       500      610      700      900      950      970     1000      129      960     1100   
                                          VAR    BASINP    GEOM    SYMINP    ZMAT    AOBASIS   BASIS     P2S    ABASIS      S 
                                         1400     1410     1200     1210     1080     1600     1650     1700   
                                           T        V       H0       H01     AOSYM     SMH    MOLCAS    OPER   

 PROGRAMS   *        TOTAL       INT
 CPU TIMES  *         7.65      7.55
 REAL TIME  *         9.04 SEC
 DISK USED  *         1.58 GB      
 GA USED    *         0.00 MB       (max)       0.00 MB       (current)
 **********************************************************************************************************************************

1PROGRAM * RHF-SCF (CLOSED SHELL)       Authors: W. Meyer, H.-J. Werner


 NUMBER OF ELECTRONS:      16+   16-
 CONVERGENCE THRESHOLDS:    1.00E-05 (Density)    1.00E-07 (Energy)
 MAX. NUMBER OF ITERATIONS:       60
 INTERPOLATION TYPE:            DIIS
 INTERPOLATION STEPS:              2 (START)      1 (STEP)
 LEVEL SHIFTS:                  0.00 (CLOSED)  0.00 (OPEN) 



 Orbital guess generated from atomic densities. Full valence occupancy:   18   4

 Molecular orbital dump at record        2100.2

 Initial alpha occupancy:  13   3
 Initial beta  occupancy:  13   3
 Wave function symmetry:    1

 ITERATION    DDIFF          GRAD             ENERGY        2-EL.EN.            DIPOLE MOMENTS         DIIS
    1      0.000D+00      0.000D+00      -263.66119258    371.090034   -1.18424   -0.00012    0.00000    0
    2      0.000D+00      0.628D-02      -263.72630051    366.444954   -0.70461   -0.00009    0.00000    1
    3      0.101D-01      0.426D-02      -263.76930357    369.013219   -0.82292   -0.00008    0.00000    2
    4      0.414D-02      0.402D-03      -263.76979854    368.803594   -0.82602   -0.00009    0.00000    3
    5      0.485D-03      0.117D-03      -263.76985654    368.804226   -0.82080   -0.00009    0.00000    4
    6      0.181D-03      0.473D-04      -263.76986374    368.819030   -0.82151   -0.00009    0.00000    5
    7      0.605D-04      0.115D-04      -263.76986446    368.810604   -0.82106   -0.00009    0.00000    6
    8      0.197D-04      0.254D-05      -263.76986451    368.811911   -0.82107   -0.00009    0.00000    7
    9      0.541D-05      0.851D-06      -263.76986451    368.811712   -0.82104   -0.00009    0.00000    0

 Final occupancy:  13   3

 !RHF STATE 1.1 Energy               -263.769864513809
 Nuclear energy                        87.66174163
 One-electron energy                 -535.83746225
 Two-electron energy                  184.40585610
 Virial quotient                       -1.00183312
 !RHF STATE 1.1 Dipole moment          -0.82104380    -0.00008800     0.00000000
 Dipole moment /Debye                  -2.08674850    -0.00022366     0.00000000

 Orbital energies:

         1.1          2.1          3.1          4.1          5.1          6.1          7.1          8.1          9.1         10.1
    -20.646964   -20.646919   -20.569010   -11.455847    -1.524626    -1.471548    -1.354264    -0.794993    -0.737277    -0.719781

        11.1         12.1         13.1         14.1         15.1
     -0.708571    -0.585659    -0.538333     0.028042     0.047027

         1.2          2.2          3.2          4.2          5.2
     -0.708734    -0.538421    -0.511926     0.078104     0.159204


 **********************************************************************************************************************************
 DATASETS  * FILE   NREC   LENGTH (MB)   RECORD NAMES
              1      18        3.76       500      610      700      900      950      970     1000      129      960     1100   
                                          VAR    BASINP    GEOM    SYMINP    ZMAT    AOBASIS   BASIS     P2S    ABASIS      S 
                                         1400     1410     1200     1210     1080     1600     1650     1700   
                                           T        V       H0       H01     AOSYM     SMH    MOLCAS    OPER   

              2       3        0.96       700     1000     2100   
                                         GEOM     BASIS     RHF  

 PROGRAMS   *        TOTAL        HF       INT
 CPU TIMES  *        11.92      4.27      7.55
 REAL TIME  *        13.54 SEC
 DISK USED  *         1.60 GB      
 SF USED    *         0.12 MB      
 GA USED    *         0.00 MB       (max)       0.00 MB       (current)
 **********************************************************************************************************************************


1PROGRAM * CCSD (Closed-shell coupled cluster)     Authors: C. Hampel, H.-J. Werner, 1991, M. Deegan, P.J. Knowles, 1992

                                  CCSD-F12 implementation by  H.-J. Werner, 2007

                   Density fitting integral evaluation by F.R. Manby, 2003,2007, G. Knizia, 2010

 Basis set CC-PVTZ/JKFIT generated.      Number of basis functions:   376 
 Basis set AUG-CC-PVTZ/MP2FIT generated. Number of basis functions:   516 

 Convergence thresholds:  THRVAR = 1.00D-08  THRDEN = 1.00D-06

 CCSD(T)     terms to be evaluated (factor= 1.000)


 Number of core orbitals:           4 (   4   0 )
 Number of closed-shell orbitals:  12 (   9   3 )
 Number of external orbitals:     214 ( 139  75 )

 Molecular orbitals read from record     2100.2  Type=RHF/CANONICAL (state 1.1)

 MP2-F12 correlation treatment (H.-J. Werner, 2006)
 --------------------------------------------------

 Using MP2-F12 with ansatz 3C(FIX)

 Using projected zeroth-order Hamiltonian (+Z)

 FOCKRIB=T FOCKRIC=T FOCKRIP=T CABSP=T CABSA=T CABSK=T CABSF=T GBC=F EBC=F DMAT=T NOFIK=T NOPAO=1 SOLVE=-1  USEPAO=0
 EXCH_A= T EXCH_B= F EXCH_C= F EXCH_P= F
 
 Geminal basis:    OPTFULL  GEM_TYPE=SLATER  BETA=1.0  NGEM=6

 Optimizing Gaussian exponents for each gem_beta

 Geminal optimization for beta= 1.0000
 Weight function:   m=0, omega= 1.4646

 Augmented Hessian optimization of geminal fit. Trust ratio= 0.40000
 Convergence reached after   2 iterations. Final gradient= 8.24D-16, Step= 4.32D-06, Delta= 1.28D-09
 
 Alpha:                 0.19532     0.81920     2.85917     9.50073    35.69989   197.79328
 Coeff:                 0.27070     0.30552     0.18297     0.10986     0.06810     0.04224
 

 Symmetry turned off. Reference energy:       -263.769864513809

 All pairs explicitly correlated. Number of r12-pairs:           78
 
 AO(A)-basis ORBITAL           loaded. Number of functions:     230
 RI(R)-basis CC-PVTZ/JKFIT     loaded. Number of functions:     376
 DF-basis CC-PVTZ/JKFIT        loaded. Number of functions:     376

 Screening thresholds:   THRAO=  1.00D-10  THRMO=  1.00D-09  THRPROD=  1.00D-09
                         THRSW=  1.00D-05  THROV=  1.00D-12  THRF12=   1.00D-08

 CPU time for Fock operators                      1.00 sec
 
 Construction of ABS:
 Smallest eigenvalue of S          2.57E-04  (threshold= 1.00E-08)
 Ratio eigmin/eigmax               1.83E-06  (threshold= 1.00E-09)
 Smallest eigenvalue of S kept     2.57E-04  (threshold= 2.57E-04, 0 functions deleted, 376 kept)
 
 Construction of CABS:
 Smallest eigenvalue of S          2.30E-08  (threshold= 1.00E-08)
 Ratio eigmin/eigmax               2.30E-08  (threshold= 1.00E-09)
 Smallest eigenvalue of S kept     2.30E-08  (threshold= 2.30E-08, 0 functions deleted, 376 kept)
 
 CPU time for CABS singles                        0.17 sec

 CABS-singles contribution of  -0.01592167 patched into reference energy.
 New reference energy        -263.78578618
 
 AO(A)-basis ORBITAL           loaded. Number of functions:     230
 RI(R)-basis CC-PVTZ/JKFIT     loaded. Number of functions:     376
 DF-basis AUG-CC-PVTZ/MP2FIT   loaded. Number of functions:     516

 Screening thresholds:   THRAO=  1.00D-10  THRMO=  1.00D-09  THRPROD=  1.00D-09
                         THRSW=  1.00D-05  THROV=  1.00D-12  THRF12=   1.00D-08

 CPU time for 3-index integral evaluation         2.26 sec
 CPU time for first  half transformation          0.29 sec ( 9733.4 MFLOP/sec)
 CPU time for second half transformation          0.05 sec ( 2047.1 MFLOP/sec)
 CPU time for sorting                             0.17 sec
 CPU time for fitting                             0.05 sec (27861.0 MFLOP/sec)
 CPU time for tilde quantities                    0.07 sec (26412.6 MFLOP/sec)
 CPU time for assembly                            0.88 sec (26850.4 MFLOP/sec)
 CPU time for tranop_f12                          0.97 sec (31190.2 MFLOP/sec)
 CPU time for f12 integrals (total)               7.01 sec
 F12-matrices built in  3 passes.
 F12-matrices built in  3 passes.
 F12-matrices built in  3 passes.
 F12-matrices built in  3 passes.
 FC-matrix built in  3 passes.
 CPU time for f12 matrices (total)                0.57 sec

 Diagonal F12 approximation with fixed coefficients:  TSING= 0.500,  TTRIP= 0.250 (scaled by -1/beta)

 DF-MP2-F12 energy corrections:
 ------------------------------
 Approx.                                    Singlet             Triplet             Total
 DF-MP2-F12/3*C(DX,FIX)                -0.097446395526     -0.016932886909     -0.114379282435
 DF-MP2-F12/3*C(FIX)                   -0.079864380804     -0.013395023922     -0.093259404726
 DF-MP2-F12/3C(FIX)                    -0.080225111758     -0.013418277473     -0.093643389232

 DF-MP2-F12 correlation energies:
 --------------------------------
 Approx.                                    Singlet             Triplet             Ecorr            Total Energy
 DF-MP2                                -0.537694591709     -0.343061714161     -0.880756305870   -264.666542486956
 DF-MP2-F12/3*C(DX,FIX)                -0.635140987235     -0.359994601070     -0.995135588305   -264.780921769391
 DF-MP2-F12/3*C(FIX)                   -0.617558972513     -0.356456738083     -0.974015710596   -264.759801891682
 DF-MP2-F12/3C(FIX)                    -0.617919703467     -0.356479991634     -0.974399695102   -264.760185876188

 SCS-DF-MP2 energies (F_SING= 1.20000  F_TRIP= 0.62222  F_PARALLEL= 0.33333):
 ----------------------------------------------------------------------------
 SCS-DF-MP2                            -0.858694132195   -264.644480313281
 SCS-DF-MP2-F12/3*C(DX,FIX)            -0.986165825348   -264.771952006434
 SCS-DF-MP2-F12/3*C(FIX)               -0.962866070712   -264.748652251798
 SCS-DF-MP2-F12/3C(FIX)                -0.963313416733   -264.749099597819

 Symmetry restored.
 Symmetry transformation completed.

 Number of N-1 electron functions:              12
 Number of N-2 electron functions:              78
 Number of singly external CSFs:              1476
 Number of doubly external CSFs:           1686804
 Total number of CSFs:                     1688281

 Pair and operator lists are different

 Length of J-op  integral file:             466.42 MB
 Length of K-op  integral file:             526.62 MB
 Length of 3-ext integral record:             0.00 MB

 Memory could be reduced to 76.61 Mwords without degradation in triples

 Integral transformation finished. Total CPU:   4.97 sec, npass=  1  Memory used:  24.61 MW

 Reference energy:                   -263.78578618

 Adding F12 terms to K(Cij), methodcc=6,  factor=1.0

 ITER.      SQ.NORM     CORR.ENERGY   TOTAL ENERGY   ENERGY CHANGE        DEN1      VAR(S)    VAR(P)  DIIS     TIME
   1      1.20211912    -0.86271879  -264.64850497     0.01805387     0.04666865  0.72D-02  0.56D-02  1  1    17.02
   2      1.21642511    -0.85849779  -264.64428397     0.00422100    -0.02014272  0.86D-04  0.59D-03  2  2    21.49
   3      1.22178494    -0.85859498  -264.64438117    -0.00009719    -0.00236411  0.13D-03  0.32D-04  3  3    25.32
   4      1.22458644    -0.85846732  -264.64425350     0.00012766    -0.00141109  0.76D-05  0.41D-05  4  4    28.87
   5      1.22561611    -0.85842967  -264.64421585     0.00003765    -0.00036617  0.56D-06  0.29D-06  5  5    32.09
   6      1.22577825    -0.85840280  -264.64418899     0.00002686    -0.00000805  0.40D-07  0.24D-07  6  6    35.46
   7      1.22580760    -0.85840038  -264.64418656     0.00000242    -0.00000621  0.25D-08  0.40D-08  6  4    38.63
   8      1.22580790    -0.85839989  -264.64418607     0.00000049     0.00000194  0.39D-09  0.27D-09  6  1    41.95
   9      1.22580852    -0.85839996  -264.64418614    -0.00000007     0.00000056  0.26D-10  0.21D-10  6  2    44.92

 Norm of t1 vector:      0.10595166      S-energy:    -0.00000003      T1 diagnostic:  0.01529281
                                                                       D1 diagnostic:  0.04497260

 Adding energy correction from Wij-K(Fij), methodcc=6  factor=1.0
 
  CCSD correlation energy              -0.858399960093
  MP2-F12 correction (uncoupled)       -0.092487591337
  C*T doubles correction               -0.001474632915
  f12b correction                       0.015406681117


 Total CPU time for triples:     83.72 sec


 RESULTS
 =======

  Reference energy                   -263.769864513809
  F12 singles correction               -0.015921667277

 F12 singles corrections added to reference energy

  New reference energy               -263.785786181086

  F12a singlet correction              -0.080425220836
  F12a triplet correction              -0.013537003417
  F12a total correction                -0.093962224253

 F12a corrections for ansatz F12/3C(FIX) added to CCSD energy
 
  CCSD-F12a singlet pair energy        -0.641856463862
  CCSD-F12a triplet pair energy        -0.310505695214
  CCSD-F12a correlation energy         -0.952362184346

  Triples (T) contribution             -0.037634564434
  Total correlation energy             -0.989996748780

  CCSD-F12a total energy             -264.738148365432
  CCSD[T]-F12a energy                -264.778324823102
  CCSD-T-F12a energy                 -264.774846255140
 !CCSD(T)-F12a total energy          -264.775782929866

 F12b corrections for ansatz F12/3C(FIX) added to CCSD(T)-F12a energy

  CCSD-F12b singlet pair energy        -0.627673167524
  CCSD-F12b triplet pair energy        -0.309282310435
  CCSD-F12b correlation energy         -0.936955503229

  Triples (T) contribution             -0.037634564434
  Total correlation energy             -0.974590067663

  CCSD-F12b total energy             -264.722741684315
  CCSD[T]-F12b energy                -264.762918141985
  CCSD-T-F12b energy                 -264.759439574023
 !CCSD(T)-F12b total energy          -264.760376248749

 Timing summary (sec):

 STEP                 CPU(USER)    SYS     CPU(TOT)    WALL
 Transformation          5.01      0.53      5.54      5.54
 CCSD iterations        30.70      1.62     32.32     32.65
 Triples                83.72      1.58     85.30     85.27
 MP2-F12                 9.22      1.22     10.44     10.45
 F12b energy             2.61      0.03      2.64      2.64

 Program statistics:

 Available memory in ccsd:                99998934
 Min. memory needed in ccsd:               4458306
 Max. memory used in ccsd:                 5958390
 Max. memory used in cckext:               6352469 (10 integral passes)



 **********************************************************************************************************************************
 DATASETS  * FILE   NREC   LENGTH (MB)   RECORD NAMES
              1      20      269.66       500      610      700      900      950      970     1000      129      960     1100   
                                          VAR    BASINP    GEOM    SYMINP    ZMAT    AOBASIS   BASIS     P2S    ABASIS      S 
                                         1400     1410     1200     1210     1080     1600     1650     1700      960(1)  1380   
                                           T        V       H0       H01     AOSYM     SMH    MOLCAS    OPER    ABASIS    JKOP   

              2       5        1.55       700     1000     2100     7360     7350   
                                         GEOM     BASIS     RHF    F12ABS    EF12   

 PROGRAMS   *        TOTAL   CCSD(T)        HF       INT
 CPU TIMES  *       143.33    131.41      4.27      7.55
 REAL TIME  *       150.37 SEC
 DISK USED  *         2.04 GB      
 SF USED    *         1.53 GB      
 GA USED    *         2.40 MB       (max)       0.00 MB       (current)
 **********************************************************************************************************************************

     CCSD(T)-F12        HF-SCF  
   -264.76037625   -263.76986451
 **********************************************************************************************************************************
 Variable memory released
