
 Primary working directories    : /scratch/kee
 Secondary working directories  : /scratch/kee
 Wavefunction directory         : /home/kee/wfu/
 Main file repository           : /scratch/kee/

 ARCHNAME  : Linux/x86_64
 FC        : /opt/intel/composer_xe_2015.0.090/bin/intel64/ifort
 FCVERSION : 15.0.0
 BLASLIB   : -L/opt/intel/mkl/lib/intel64 -lmkl_intel_ilp64 -lmkl_sequential -lmkl_core
 id        : emory

 Nodes     nprocs
 node2        3
 Number of processes for MPI-2 version of Molpro:   nprocs(total)=    4   nprocs(compute)=    3   nprocs(helper)=    1
 ga_uses_ma=false, calling ma_init with nominal heap.
 GA-space will be limited to   8.0 MW (determined by -G option)

 Using customized tuning parameters: mindgm=7; mindgv=32; mindgc=1; mindgr=1; noblas=0; mincuda=1000; minvec=7
 default implementation of scratch files=sf  

 ***,co2h2o
 memory,100,m
 basis avtz
 geomtype = xyz
 geometry = {
 3
       0.00000000
 O     0.02747900    1.16001200    0.00000000
 O    -0.00936500   -1.16396300    0.00000000
 C     0.02536600   -0.00312200    0.00000000
 }
 hf
 ccsd(t)-f12
 ---

 Variables initialized (665), CPU time= 0.00 sec
 Commands  initialized (462), CPU time= 0.01 sec, 486 directives.
 Default parameters read. Elapsed time= 0.04 sec

 Checking input...
 Passed
1


                                         ***  PROGRAM SYSTEM MOLPRO  ***
                         Copyright, University College Cardiff Consultants Limited, 2008

                                    Version 2010.1 linked 9 Dec 2014 15:06:28 


 **********************************************************************************************************************************
 LABEL *   co2h2o                                                                        
 Linux-2.6.32-504.el6.x86_64/node2(x86_64) 64 bit mpp version                            DATE: 14-Dec-16          TIME: 23:39:54  
 **********************************************************************************************************************************

 Patch level:      19
 **********************************************************************************************************************************

 Variable memory set to  100000000 words,  buffer space   230000 words

 SETTING BASIS          =    AVTZ
 SETTING GEOMTYPE       =    XYZ

Geometry recognized as XYZ



 Recomputing integrals since basis changed


 Using spherical harmonics

 Library entry O      S aug-cc-pVTZ          selected for orbital group  1
 Library entry O      P aug-cc-pVTZ          selected for orbital group  1
 Library entry O      D aug-cc-pVTZ          selected for orbital group  1
 Library entry O      F aug-cc-pVTZ          selected for orbital group  1
 Library entry C      S aug-cc-pVTZ          selected for orbital group  2
 Library entry C      P aug-cc-pVTZ          selected for orbital group  2
 Library entry C      D aug-cc-pVTZ          selected for orbital group  2
 Library entry C      F aug-cc-pVTZ          selected for orbital group  2

1PROGRAM * SEWARD (Integral evaluation for generally contracted gaussian basis sets)     Author: Roland Lindh, 1990

 Geometry written to block  1 of record 700


 Point group  Cs  



 ATOMIC COORDINATES

 NR  ATOM    CHARGE       X              Y              Z

   1  O       8.00    0.051927784    2.192104989    0.000000000
   2  O       8.00   -0.017697285   -2.199571297    0.000000000
   3  C       6.00    0.047934793   -0.005899725    0.000000000

 Bond lengths in Bohr (Angstrom)

 1-3  2.198008341  2-3  2.194653170
     (1.163135919)     (1.161360439)

 Bond angles

  1-3-2  178.39037465

 NUCLEAR CHARGE:                   22
 NUMBER OF PRIMITIVE AOS:         201
 NUMBER OF SYMMETRY AOS:          174
 NUMBER OF CONTRACTIONS:          138   (  90A'  +  48A"  )
 NUMBER OF CORE ORBITALS:           3   (   3A'  +   0A"  )
 NUMBER OF VALENCE ORBITALS:       12   (   9A'  +   3A"  )


 NUCLEAR REPULSION ENERGY   58.28048115


 Eigenvalues of metric

         1 0.349E-03 0.420E-03 0.903E-03 0.922E-03 0.175E-02 0.317E-02 0.348E-02 0.405E-02
         2 0.318E-02 0.348E-02 0.136E-01 0.296E-01 0.297E-01 0.319E-01 0.363E-01 0.561E-01


 Contracted 2-electron integrals neglected if value below      1.0D-11
 AO integral compression algorithm  1   Integral accuracy      1.0D-11

     123.208 MB (compressed) written to integral file ( 51.9%)

     Node minimum: 39.584 MB, node maximum: 42.729 MB


 NUMBER OF SORTED TWO-ELECTRON INTEGRALS:    7843689.     BUFFER LENGTH:  32768
 NUMBER OF SEGMENTS:   1  SEGMENT LENGTH:    7843689      RECORD LENGTH: 524288

 Memory used in sort:       8.40 MW

 SORT1 READ    29786203. AND WROTE     7554437. INTEGRALS IN     22 RECORDS. CPU TIME:     0.39 SEC, REAL TIME:     0.47 SEC
 SORT2 READ    22711253. AND WROTE    23525796. INTEGRALS IN    489 RECORDS. CPU TIME:     0.16 SEC, REAL TIME:     0.23 SEC

 Node minimum:     7840175.  Node maximum:     7843689. integrals

 OPERATOR DM      FOR CENTER  0  COORDINATES:    0.000000    0.000000    0.000000


 **********************************************************************************************************************************
 DATASETS  * FILE   NREC   LENGTH (MB)   RECORD NAMES
              1      18        2.99       500      610      700      900      950      970     1000      129      960     1100   
                                          VAR    BASINP    GEOM    SYMINP    ZMAT    AOBASIS   BASIS     P2S    ABASIS      S 
                                         1400     1410     1200     1210     1080     1600     1650     1700   
                                           T        V       H0       H01     AOSYM     SMH    MOLCAS    OPER   

 PROGRAMS   *        TOTAL       INT
 CPU TIMES  *         1.50      1.43
 REAL TIME  *         1.97 SEC
 DISK USED  *       388.21 MB      
 GA USED    *         0.00 MB       (max)       0.00 MB       (current)
 **********************************************************************************************************************************

1PROGRAM * RHF-SCF (CLOSED SHELL)       Authors: W. Meyer, H.-J. Werner


 NUMBER OF ELECTRONS:      11+   11-
 CONVERGENCE THRESHOLDS:    1.00E-05 (Density)    1.00E-07 (Energy)
 MAX. NUMBER OF ITERATIONS:       60
 INTERPOLATION TYPE:            DIIS
 INTERPOLATION STEPS:              2 (START)      1 (STEP)
 LEVEL SHIFTS:                  0.00 (CLOSED)  0.00 (OPEN) 



 Orbital guess generated from atomic densities. Full valence occupancy:   12   3

 Molecular orbital dump at record        2100.2

 Initial alpha occupancy:   9   2
 Initial beta  occupancy:   9   2
 Wave function symmetry:    1

 ITERATION    DDIFF          GRAD             ENERGY        2-EL.EN.            DIPOLE MOMENTS         DIIS
    1      0.000D+00      0.000D+00      -187.63738686    252.701903    0.04803   -0.00831    0.00000    0
    2      0.000D+00      0.870D-02      -187.67596438    251.743656    0.00833   -0.00289    0.00000    1
    3      0.136D-01      0.612D-02      -187.70859112    252.776953    0.02316   -0.00587    0.00000    2
    4      0.596D-02      0.511D-03      -187.70887909    252.570465    0.02258   -0.00511    0.00000    3
    5      0.604D-03      0.149D-03      -187.70891179    252.609929    0.02234   -0.00572    0.00000    4
    6      0.237D-03      0.365D-04      -187.70891399    252.605511    0.02229   -0.00506    0.00000    5
    7      0.720D-04      0.646D-05      -187.70891405    252.605754    0.02228   -0.00577    0.00000    6
    8      0.108D-04      0.402D-05      -187.70891407    252.605905    0.02229   -0.00544    0.00000    7
    9      0.472D-05      0.643D-06      -187.70891407    252.605873    0.02229   -0.00548    0.00000    0

 Final occupancy:   9   2

 !RHF STATE 1.1 Energy               -187.708914068357
 Nuclear energy                        58.28048115
 One-electron energy                 -372.29233194
 Two-electron energy                  126.30293673
 Virial quotient                       -1.00199371
 !RHF STATE 1.1 Dipole moment           0.02229262    -0.00548133     0.00000000
 Dipole moment /Debye                   0.05665847    -0.01393124     0.00000000

 Orbital energies:

         1.1          2.1          3.1          4.1          5.1          6.1          7.1          8.1          9.1         10.1
    -20.653756   -20.653213   -11.462272    -1.531108    -1.477995    -0.801357    -0.743577    -0.715164    -0.544800     0.047281

        11.1
      0.072862

         1.2          2.2          3.2          4.2
     -0.715170    -0.544818     0.072855     0.163744


 **********************************************************************************************************************************
 DATASETS  * FILE   NREC   LENGTH (MB)   RECORD NAMES
              1      18        3.00       500      610      700      900      950      970     1000      129      960     1100   
                                          VAR    BASINP    GEOM    SYMINP    ZMAT    AOBASIS   BASIS     P2S    ABASIS      S 
                                         1400     1410     1200     1210     1080     1600     1650     1700   
                                           T        V       H0       H01     AOSYM     SMH    MOLCAS    OPER   

              2       3        0.52       700     1000     2100   
                                         GEOM     BASIS     RHF  

 PROGRAMS   *        TOTAL        HF       INT
 CPU TIMES  *         2.03      0.53      1.43
 REAL TIME  *         2.53 SEC
 DISK USED  *       402.88 MB      
 SF USED    *         0.04 MB      
 GA USED    *         0.00 MB       (max)       0.00 MB       (current)
 **********************************************************************************************************************************


1PROGRAM * CCSD (Closed-shell coupled cluster)     Authors: C. Hampel, H.-J. Werner, 1991, M. Deegan, P.J. Knowles, 1992

                                  CCSD-F12 implementation by  H.-J. Werner, 2007

                   Density fitting integral evaluation by F.R. Manby, 2003,2007, G. Knizia, 2010

 Basis set CC-PVTZ/JKFIT generated.      Number of basis functions:   237 
 Basis set AUG-CC-PVTZ/MP2FIT generated. Number of basis functions:   318 

 Convergence thresholds:  THRVAR = 1.00D-08  THRDEN = 1.00D-06

 CCSD(T)     terms to be evaluated (factor= 1.000)


 Number of core orbitals:           3 (   3   0 )
 Number of closed-shell orbitals:   8 (   6   2 )
 Number of external orbitals:     127 (  81  46 )

 Molecular orbitals read from record     2100.2  Type=RHF/CANONICAL (state 1.1)

 MP2-F12 correlation treatment (H.-J. Werner, 2006)
 --------------------------------------------------

 Using MP2-F12 with ansatz 3C(FIX)

 Using projected zeroth-order Hamiltonian (+Z)

 FOCKRIB=T FOCKRIC=T FOCKRIP=T CABSP=T CABSA=T CABSK=T CABSF=T GBC=F EBC=F DMAT=T NOFIK=T NOPAO=1 SOLVE=-1  USEPAO=0
 EXCH_A= T EXCH_B= F EXCH_C= F EXCH_P= F
 
 Geminal basis:    OPTFULL  GEM_TYPE=SLATER  BETA=1.0  NGEM=6

 Optimizing Gaussian exponents for each gem_beta

 Geminal optimization for beta= 1.0000
 Weight function:   m=0, omega= 1.4646

 Augmented Hessian optimization of geminal fit. Trust ratio= 0.40000
 Convergence reached after   2 iterations. Final gradient= 8.24D-16, Step= 4.32D-06, Delta= 1.28D-09
 
 Alpha:                 0.19532     0.81920     2.85917     9.50073    35.69989   197.79328
 Coeff:                 0.27070     0.30552     0.18297     0.10986     0.06810     0.04224
 

 Symmetry turned off. Reference energy:       -187.708914068358

 All pairs explicitly correlated. Number of r12-pairs:           36
 
 AO(A)-basis ORBITAL           loaded. Number of functions:     138
 RI(R)-basis CC-PVTZ/JKFIT     loaded. Number of functions:     237
 DF-basis CC-PVTZ/JKFIT        loaded. Number of functions:     237

 Screening thresholds:   THRAO=  1.00D-10  THRMO=  1.00D-09  THRPROD=  1.00D-09
                         THRSW=  1.00D-05  THROV=  1.00D-12  THRF12=   1.00D-08

 CPU time for Fock operators                      0.26 sec
 
 Construction of ABS:
 Smallest eigenvalue of S          2.57E-04  (threshold= 1.00E-08)
 Ratio eigmin/eigmax               1.83E-06  (threshold= 1.00E-09)
 Smallest eigenvalue of S kept     2.57E-04  (threshold= 2.57E-04, 0 functions deleted, 237 kept)
 
 Construction of CABS:
 Smallest eigenvalue of S          2.30E-08  (threshold= 1.00E-08)
 Ratio eigmin/eigmax               2.30E-08  (threshold= 1.00E-09)
 Smallest eigenvalue of S kept     2.30E-08  (threshold= 2.30E-08, 0 functions deleted, 237 kept)
 
 CPU time for CABS singles                        0.04 sec

 CABS-singles contribution of  -0.01134803 patched into reference energy.
 New reference energy        -187.72026209
 
 AO(A)-basis ORBITAL           loaded. Number of functions:     138
 RI(R)-basis CC-PVTZ/JKFIT     loaded. Number of functions:     237
 DF-basis AUG-CC-PVTZ/MP2FIT   loaded. Number of functions:     318

 Screening thresholds:   THRAO=  1.00D-10  THRMO=  1.00D-09  THRPROD=  1.00D-09
                         THRSW=  1.00D-05  THROV=  1.00D-12  THRF12=   1.00D-08

 CPU time for 3-index integral evaluation         0.83 sec
 CPU time for first  half transformation          0.05 sec ( 9677.1 MFLOP/sec)
 CPU time for sorting                             0.02 sec
 CPU time for fitting                             0.01 sec (24755.2 MFLOP/sec)
 CPU time for assembly                            0.08 sec (31824.5 MFLOP/sec)
 CPU time for tranop_f12                          0.10 sec (31677.1 MFLOP/sec)
 CPU time for f12 integrals (total)               1.52 sec
 F12-matrices built in  3 passes.
 F12-matrices built in  3 passes.
 F12-matrices built in  3 passes.
 F12-matrices built in  3 passes.
 FC-matrix built in  3 passes.
 CPU time for f12 matrices (total)                0.05 sec

 Diagonal F12 approximation with fixed coefficients:  TSING= 0.500,  TTRIP= 0.250 (scaled by -1/beta)

 DF-MP2-F12 energy corrections:
 ------------------------------
 Approx.                                    Singlet             Triplet             Total
 DF-MP2-F12/3*C(DX,FIX)                -0.067695995240     -0.012041394688     -0.079737389928
 DF-MP2-F12/3*C(FIX)                   -0.055404294239     -0.009594515543     -0.064998809782
 DF-MP2-F12/3C(FIX)                    -0.055648372149     -0.009628140689     -0.065276512838

 DF-MP2-F12 correlation energies:
 --------------------------------
 Approx.                                    Singlet             Triplet             Ecorr            Total Energy
 DF-MP2                                -0.367091105776     -0.245321974235     -0.612413080012   -188.332675174663
 DF-MP2-F12/3*C(DX,FIX)                -0.434787101017     -0.257363368923     -0.692150469940   -188.412412564591
 DF-MP2-F12/3*C(FIX)                   -0.422495400015     -0.254916489778     -0.677411889793   -188.397673984444
 DF-MP2-F12/3C(FIX)                    -0.422739477925     -0.254950114924     -0.677689592849   -188.397951687500

 SCS-DF-MP2 energies (F_SING= 1.20000  F_TRIP= 0.62222  F_PARALLEL= 0.33333):
 ----------------------------------------------------------------------------
 SCS-DF-MP2                            -0.593154110900   -188.313416205551
 SCS-DF-MP2-F12/3*C(DX,FIX)            -0.681881728550   -188.402143823201
 SCS-DF-MP2-F12/3*C(FIX)               -0.665609184769   -188.385871279420
 SCS-DF-MP2-F12/3C(FIX)                -0.665923000574   -188.386185095225

 Symmetry restored.
 Symmetry transformation completed.

 Number of N-1 electron functions:               8
 Number of N-2 electron functions:              36
 Number of singly external CSFs:               578
 Number of doubly external CSFs:            263472
 Total number of CSFs:                      264051

 Pair and operator lists are different

 Length of J-op  integral file:              79.99 MB
 Length of K-op  integral file:              95.69 MB
 Length of 3-ext integral record:             0.00 MB

 Memory could be reduced to 11.96 Mwords without degradation in triples

 Integral transformation finished. Total CPU:   0.38 sec, npass=  1  Memory used:   3.90 MW

 Reference energy:                   -187.72026209

 Adding F12 terms to K(Cij), methodcc=6,  factor=1.0

 ITER.      SQ.NORM     CORR.ENERGY   TOTAL ENERGY   ENERGY CHANGE        DEN1      VAR(S)    VAR(P)  DIIS     TIME
   1      1.14105552    -0.59452144  -188.31478354     0.01788546     0.04081175  0.64D-02  0.46D-02  1  1     2.60
   2      1.15205935    -0.59062557  -188.31088766     0.00389587    -0.01559099  0.93D-04  0.43D-03  2  2     2.85
   3      1.15648200    -0.59062251  -188.31088460     0.00000306    -0.00181593  0.11D-03  0.23D-04  3  3     3.10
   4      1.15885669    -0.59045502  -188.31071711     0.00016749    -0.00110351  0.59D-05  0.31D-05  4  4     3.35
   5      1.15969502    -0.59041479  -188.31067688     0.00004023    -0.00028758  0.35D-06  0.21D-06  5  5     3.61
   6      1.15980502    -0.59039637  -188.31065846     0.00001842    -0.00000006  0.24D-07  0.19D-07  6  6     3.86
   7      1.15982434    -0.59039470  -188.31065679     0.00000167    -0.00000422  0.16D-08  0.29D-08  6  2     4.11
   8      1.15982239    -0.59039489  -188.31065698    -0.00000019     0.00000220  0.25D-09  0.20D-09  6  1     4.36
   9      1.15982263    -0.59039485  -188.31065694     0.00000004     0.00000046  0.17D-10  0.16D-10  6  4     4.61

 Norm of t1 vector:      0.09973465      S-energy:     0.00000008      T1 diagnostic:  0.01763076
                                                                       D1 diagnostic:  0.04494921

 Adding energy correction from Wij-K(Fij), methodcc=6  factor=1.0
 
  CCSD correlation energy              -0.590394847666
  MP2-F12 correction (uncoupled)       -0.064413835902
  C*T doubles correction               -0.001040366172
  f12b correction                       0.010654748592


 Total CPU time for triples:      4.18 sec


 RESULTS
 =======

  Reference energy                   -187.708914068358
  F12 singles correction               -0.011348026293

 F12 singles corrections added to reference energy

  New reference energy               -187.720262094651

  F12a singlet correction              -0.055765551521
  F12a triplet correction              -0.009688650553
  F12a total correction                -0.065454202074

 F12a corrections for ansatz F12/3C(FIX) added to CCSD energy
 
  CCSD-F12a singlet pair energy        -0.435802920382
  CCSD-F12a triplet pair energy        -0.220046210808
  CCSD-F12a correlation energy         -0.655849049740

  Triples (T) contribution             -0.029207667217
  Total correlation energy             -0.685056716957

  CCSD-F12a total energy             -188.376111144391
  CCSD[T]-F12a energy                -188.407565356620
  CCSD-T-F12a energy                 -188.404502322267
 !CCSD(T)-F12a total energy          -188.405318811608

 F12b corrections for ansatz F12/3C(FIX) added to CCSD(T)-F12a energy

  CCSD-F12b singlet pair energy        -0.426009352238
  CCSD-F12b triplet pair energy        -0.219185030361
  CCSD-F12b correlation energy         -0.645194301148

  Triples (T) contribution             -0.029207667217
  Total correlation energy             -0.674401968365

  CCSD-F12b total energy             -188.365456395799
  CCSD[T]-F12b energy                -188.396910608028
  CCSD-T-F12b energy                 -188.393847573675
 !CCSD(T)-F12b total energy          -188.394664063016

 Timing summary (sec):

 STEP                 CPU(USER)    SYS     CPU(TOT)    WALL
 Transformation          0.39      0.06      0.45      0.45
 CCSD iterations         2.26      0.21      2.47      2.48
 Triples                 4.18      0.09      4.27      4.27
 MP2-F12                 1.96      0.20      2.16      2.16
 F12b energy             0.16      0.01      0.17      0.16

 Program statistics:

 Available memory in ccsd:                99999464
 Min. memory needed in ccsd:                822146
 Max. memory used in ccsd:                 1041664
 Max. memory used in cckext:               1204058 (10 integral passes)



 **********************************************************************************************************************************
 DATASETS  * FILE   NREC   LENGTH (MB)   RECORD NAMES
              1      20       41.18       500      610      700      900      950      970     1000      129      960     1100   
                                          VAR    BASINP    GEOM    SYMINP    ZMAT    AOBASIS   BASIS     P2S    ABASIS      S 
                                         1400     1410     1200     1210     1080     1600     1650     1700      960(1)  1380   
                                           T        V       H0       H01     AOSYM     SMH    MOLCAS    OPER    ABASIS    JKOP   

              2       5        0.74       700     1000     2100     7360     7350   
                                         GEOM     BASIS     RHF    F12ABS    EF12   

 PROGRAMS   *        TOTAL   CCSD(T)        HF       INT
 CPU TIMES  *        10.99      8.96      0.53      1.43
 REAL TIME  *        12.12 SEC
 DISK USED  *       469.02 MB      
 SF USED    *       274.04 MB      
 GA USED    *         2.40 MB       (max)       0.00 MB       (current)
 **********************************************************************************************************************************

     CCSD(T)-F12        HF-SCF  
   -188.39466406   -187.70891407
 **********************************************************************************************************************************
 Variable memory released
