
 Primary working directories    : /scratch/kee
 Secondary working directories  : /scratch/kee
 Wavefunction directory         : /home/kee/wfu/
 Main file repository           : /scratch/kee/

 ARCHNAME  : Linux/x86_64
 FC        : /opt/intel/composer_xe_2015.0.090/bin/intel64/ifort
 FCVERSION : 15.0.0
 BLASLIB   : -L/opt/intel/mkl/lib/intel64 -lmkl_intel_ilp64 -lmkl_sequential -lmkl_core
 id        : emory

 Nodes     nprocs
 node18       3
 Number of processes for MPI-2 version of Molpro:   nprocs(total)=    4   nprocs(compute)=    3   nprocs(helper)=    1
 ga_uses_ma=false, calling ma_init with nominal heap.
 GA-space will be limited to   8.0 MW (determined by -G option)

 Using customized tuning parameters: mindgm=7; mindgv=32; mindgc=1; mindgr=1; noblas=0; mincuda=1000; minvec=7
 default implementation of scratch files=sf  

 ***,co2h2o
 memory,100,m
 basis avtz
 geomtype = xyz
 geometry = {
 6
       0.00000000
 O     0.00032100    1.15989800    0.00000000
 O     0.00041400   -1.15989400    0.00000000
 O    10.66089196    7.81949194    2.80484913
 H    11.45244647    8.12844759    2.36250049
 H    10.97487777    7.34086419    3.57297136
 C     0.01953800    0.00000300    0.00000000
 }
 hf
 ccsd(t)-f12
 ---

 Variables initialized (665), CPU time= 0.00 sec
 Commands  initialized (462), CPU time= 0.01 sec, 486 directives.
 Default parameters read. Elapsed time= 0.04 sec

 Checking input...
 Passed
1


                                         ***  PROGRAM SYSTEM MOLPRO  ***
                         Copyright, University College Cardiff Consultants Limited, 2008

                                    Version 2010.1 linked 9 Dec 2014 15:06:28 


 **********************************************************************************************************************************
 LABEL *   co2h2o                                                                        
 Linux-2.6.32-504.el6.x86_64/node18(x86_64) 64 bit mpp version                           DATE: 15-Dec-16          TIME: 01:05:17  
 **********************************************************************************************************************************

 Patch level:      19
 **********************************************************************************************************************************

 Variable memory set to  100000000 words,  buffer space   230000 words

 SETTING BASIS          =    AVTZ
 SETTING GEOMTYPE       =    XYZ

Geometry recognized as XYZ



 Recomputing integrals since basis changed


 Using spherical harmonics

 Library entry O      S aug-cc-pVTZ          selected for orbital group  1
 Library entry O      P aug-cc-pVTZ          selected for orbital group  1
 Library entry O      D aug-cc-pVTZ          selected for orbital group  1
 Library entry O      F aug-cc-pVTZ          selected for orbital group  1
 Library entry H      S aug-cc-pVTZ          selected for orbital group  2
 Library entry H      P aug-cc-pVTZ          selected for orbital group  2
 Library entry H      D aug-cc-pVTZ          selected for orbital group  2
 Library entry C      S aug-cc-pVTZ          selected for orbital group  3
 Library entry C      P aug-cc-pVTZ          selected for orbital group  3
 Library entry C      D aug-cc-pVTZ          selected for orbital group  3
 Library entry C      F aug-cc-pVTZ          selected for orbital group  3

1PROGRAM * SEWARD (Integral evaluation for generally contracted gaussian basis sets)     Author: Roland Lindh, 1990

 Geometry written to block  1 of record 700


 Point group  C1  



 ATOMIC COORDINATES

 NR  ATOM    CHARGE       X              Y              Z

   1  O       8.00    0.000606602    2.191889560    0.000000000
   2  O       8.00    0.000782347   -2.191882001    0.000000000
   3  O       8.00   20.146166121   14.776698253    5.300396696
   4  H       1.00   21.641987363   15.360539819    4.464478911
   5  H       1.00   20.739513311   13.872222887    6.751937346
   6  C       6.00    0.036921469    0.000005669    0.000000000

 Bond lengths in Bohr (Angstrom)

 1-6  2.192184701  2-6  2.192185575  3-4  1.810279178  3-5  1.810278110
     (1.160054182)     (1.160054644)     (0.957958483)     (0.957957918)

 Bond angles

  1-6-2  178.10622893   4-3-5  105.10354968

 NUCLEAR CHARGE:                   32
 NUMBER OF PRIMITIVE AOS:         322
 NUMBER OF SYMMETRY AOS:          282
 NUMBER OF CONTRACTIONS:          230   ( 230A   )
 NUMBER OF CORE ORBITALS:           4   (   4A   )
 NUMBER OF VALENCE ORBITALS:       18   (  18A   )


 NUCLEAR REPULSION ENERGY   76.13956202


 Eigenvalues of metric

         1 0.348E-03 0.384E-03 0.392E-03 0.419E-03 0.896E-03 0.914E-03 0.167E-02 0.174E-02


 Contracted 2-electron integrals neglected if value below      1.0D-11
 AO integral compression algorithm  1   Integral accuracy      1.0D-11

     358.089 MB (compressed) written to integral file ( 26.6%)

     Node minimum: 77.595 MB, node maximum: 142.082 MB


 NUMBER OF SORTED TWO-ELECTRON INTEGRALS:  117629820.     BUFFER LENGTH:  32768
 NUMBER OF SEGMENTS:   8  SEGMENT LENGTH:   15997437      RECORD LENGTH: 524288

 Memory used in sort:      16.55 MW

 SORT1 READ   168372447. AND WROTE    24945930. INTEGRALS IN     75 RECORDS. CPU TIME:     1.47 SEC, REAL TIME:     1.71 SEC
 SORT2 READ    74290629. AND WROTE   352862895. INTEGRALS IN    888 RECORDS. CPU TIME:     0.75 SEC, REAL TIME:     0.94 SEC

 Node minimum:   117612110.  Node maximum:   117629820. integrals

 OPERATOR DM      FOR CENTER  0  COORDINATES:    0.000000    0.000000    0.000000


 **********************************************************************************************************************************
 DATASETS  * FILE   NREC   LENGTH (MB)   RECORD NAMES
              1      18        4.62       500      610      700      900      950      970     1000      129      960     1100   
                                          VAR    BASINP    GEOM    SYMINP    ZMAT    AOBASIS   BASIS     P2S    ABASIS      S 
                                         1400     1410     1200     1210     1080     1600     1650     1700   
                                           T        V       H0       H01     AOSYM     SMH    MOLCAS    OPER   

 PROGRAMS   *        TOTAL       INT
 CPU TIMES  *         4.08      4.01
 REAL TIME  *         4.64 SEC
 DISK USED  *         1.26 GB      
 GA USED    *         0.00 MB       (max)       0.00 MB       (current)
 **********************************************************************************************************************************

1PROGRAM * RHF-SCF (CLOSED SHELL)       Authors: W. Meyer, H.-J. Werner


 NUMBER OF ELECTRONS:      16+   16-    SPACE SYMMETRY=1    SPIN SYMMETRY=Singlet 
 CONVERGENCE THRESHOLDS:    1.00E-05 (Density)    1.00E-07 (Energy)
 MAX. NUMBER OF ITERATIONS:       60
 INTERPOLATION TYPE:            DIIS
 INTERPOLATION STEPS:              2 (START)      1 (STEP)
 LEVEL SHIFTS:                  0.00 (CLOSED)  0.00 (OPEN) 



 Orbital guess generated from atomic densities. Full valence occupancy:   22

 Molecular orbital dump at record        2100.2

 ITERATION    DDIFF          GRAD             ENERGY        2-EL.EN.            DIPOLE MOMENTS         DIIS
    1      0.000D+00      0.000D+00      -263.66135749    347.747216    1.12568   -0.16409    0.31507    0
    2      0.000D+00      0.468D-02      -263.72655226    343.199297    0.64456   -0.09457    0.18688    1
    3      0.749D-02      0.317D-02      -263.76941083    345.749075    0.76539   -0.11177    0.21732    2
    4      0.307D-02      0.296D-03      -263.76989913    345.535473    0.76849   -0.11206    0.21858    3
    5      0.356D-03      0.858D-04      -263.76995552    345.539762    0.76338   -0.11152    0.21706    4
    6      0.132D-03      0.344D-04      -263.76996239    345.553476    0.76399   -0.11148    0.21729    5
    7      0.433D-04      0.849D-05      -263.76996310    345.545292    0.76357   -0.11149    0.21716    6
    8      0.141D-04      0.187D-05      -263.76996314    345.546568    0.76358   -0.11144    0.21716    7
    9      0.382D-05      0.680D-06      -263.76996315    345.546389    0.76355   -0.11149    0.21715    0

 Final occupancy:  16

 !RHF STATE 1.1 Energy               -263.769963145254
 Nuclear energy                        76.13956202
 One-electron energy                 -512.68271986
 Two-electron energy                  172.77319469
 Virial quotient                       -1.00173770
 !RHF STATE 1.1 Dipole moment           0.76354884    -0.11148505     0.21715366
 Dipole moment /Debye                   1.94062046    -0.28334819     0.55191340

 Orbital energies:

         1.1          2.1          3.1          4.1          5.1          6.1          7.1          8.1          9.1         10.1
    -20.652066   -20.651982   -20.567102   -11.460147    -1.531429    -1.478307    -1.352846    -0.800209    -0.743079    -0.718632

        11.1         12.1         13.1         14.1         15.1         16.1         17.1         18.1
     -0.715224    -0.715214    -0.583691    -0.544049    -0.544024    -0.510165     0.029428     0.047589


 **********************************************************************************************************************************
 DATASETS  * FILE   NREC   LENGTH (MB)   RECORD NAMES
              1      18        4.62       500      610      700      900      950      970     1000      129      960     1100   
                                          VAR    BASINP    GEOM    SYMINP    ZMAT    AOBASIS   BASIS     P2S    ABASIS      S 
                                         1400     1410     1200     1210     1080     1600     1650     1700   
                                           T        V       H0       H01     AOSYM     SMH    MOLCAS    OPER   

              2       3        1.44       700     1000     2100   
                                         GEOM     BASIS     RHF  

 PROGRAMS   *        TOTAL        HF       INT
 CPU TIMES  *        10.24      6.16      4.01
 REAL TIME  *        10.94 SEC
 DISK USED  *         1.29 GB      
 SF USED    *         0.21 MB      
 GA USED    *         0.00 MB       (max)       0.00 MB       (current)
 **********************************************************************************************************************************


1PROGRAM * CCSD (Closed-shell coupled cluster)     Authors: C. Hampel, H.-J. Werner, 1991, M. Deegan, P.J. Knowles, 1992

                                  CCSD-F12 implementation by  H.-J. Werner, 2007

                   Density fitting integral evaluation by F.R. Manby, 2003,2007, G. Knizia, 2010

 Basis set CC-PVTZ/JKFIT generated.      Number of basis functions:   376 
 Basis set AUG-CC-PVTZ/MP2FIT generated. Number of basis functions:   516 

 Convergence thresholds:  THRVAR = 1.00D-08  THRDEN = 1.00D-06

 CCSD(T)     terms to be evaluated (factor= 1.000)


 Number of core orbitals:           4 (   4 )
 Number of closed-shell orbitals:  12 (  12 )
 Number of external orbitals:     214 ( 214 )

 Molecular orbitals read from record     2100.2  Type=RHF/CANONICAL (state 1.1)

 MP2-F12 correlation treatment (H.-J. Werner, 2006)
 --------------------------------------------------

 Using MP2-F12 with ansatz 3C(FIX)

 Using projected zeroth-order Hamiltonian (+Z)

 FOCKRIB=T FOCKRIC=T FOCKRIP=T CABSP=T CABSA=T CABSK=T CABSF=T GBC=F EBC=F DMAT=T NOFIK=T NOPAO=1 SOLVE=-1  USEPAO=0
 EXCH_A= T EXCH_B= F EXCH_C= F EXCH_P= F
 
 Geminal basis:    OPTFULL  GEM_TYPE=SLATER  BETA=1.0  NGEM=6

 Optimizing Gaussian exponents for each gem_beta

 Geminal optimization for beta= 1.0000
 Weight function:   m=0, omega= 1.4646

 Augmented Hessian optimization of geminal fit. Trust ratio= 0.40000
 Convergence reached after   2 iterations. Final gradient= 8.24D-16, Step= 4.32D-06, Delta= 1.28D-09
 
 Alpha:                 0.19532     0.81920     2.85917     9.50073    35.69989   197.79328
 Coeff:                 0.27070     0.30552     0.18297     0.10986     0.06810     0.04224
 

 All pairs explicitly correlated. Number of r12-pairs:           78
 
 AO(A)-basis ORBITAL           loaded. Number of functions:     230
 RI(R)-basis CC-PVTZ/JKFIT     loaded. Number of functions:     376
 DF-basis CC-PVTZ/JKFIT        loaded. Number of functions:     376

 Screening thresholds:   THRAO=  1.00D-10  THRMO=  1.00D-09  THRPROD=  1.00D-09
                         THRSW=  1.00D-05  THROV=  1.00D-12  THRF12=   1.00D-08

 CPU time for Fock operators                      0.76 sec
 
 Construction of ABS:
 Smallest eigenvalue of S          2.57E-04  (threshold= 1.00E-08)
 Ratio eigmin/eigmax               1.83E-06  (threshold= 1.00E-09)
 Smallest eigenvalue of S kept     2.57E-04  (threshold= 2.57E-04, 0 functions deleted, 376 kept)
 
 Construction of CABS:
 Smallest eigenvalue of S          2.29E-08  (threshold= 1.00E-08)
 Ratio eigmin/eigmax               2.29E-08  (threshold= 1.00E-09)
 Smallest eigenvalue of S kept     2.29E-08  (threshold= 2.29E-08, 0 functions deleted, 376 kept)
 
 CPU time for CABS singles                        0.14 sec

 CABS-singles contribution of  -0.01596097 patched into reference energy.
 New reference energy        -263.78592411
 
 AO(A)-basis ORBITAL           loaded. Number of functions:     230
 RI(R)-basis CC-PVTZ/JKFIT     loaded. Number of functions:     376
 DF-basis AUG-CC-PVTZ/MP2FIT   loaded. Number of functions:     516

 Screening thresholds:   THRAO=  1.00D-10  THRMO=  1.00D-09  THRPROD=  1.00D-09
                         THRSW=  1.00D-05  THROV=  1.00D-12  THRF12=   1.00D-08

 CPU time for 3-index integral evaluation         1.28 sec
 CPU time for first  half transformation          0.10 sec (14083.2 MFLOP/sec)
 CPU time for second half transformation          0.03 sec ( 2598.4 MFLOP/sec)
 CPU time for sorting                             0.08 sec
 CPU time for fitting                             0.05 sec (27861.0 MFLOP/sec)
 CPU time for tilde quantities                    0.05 sec (36977.6 MFLOP/sec)
 CPU time for assembly                            0.67 sec (34560.3 MFLOP/sec)
 CPU time for tranop_f12                          0.80 sec (37843.6 MFLOP/sec)
 CPU time for f12 integrals (total)               4.87 sec
 F12-matrices built in  3 passes.
 F12-matrices built in  3 passes.
 F12-matrices built in  3 passes.
 F12-matrices built in  3 passes.
 FC-matrix built in  3 passes.
 CPU time for f12 matrices (total)                0.42 sec

 Diagonal F12 approximation with fixed coefficients:  TSING= 0.500,  TTRIP= 0.250 (scaled by -1/beta)

 DF-MP2-F12 energy corrections:
 ------------------------------
 Approx.                                    Singlet             Triplet             Total
 DF-MP2-F12/3*C(DX,FIX)                -0.097505187898     -0.016950860548     -0.114456048446
 DF-MP2-F12/3*C(FIX)                   -0.079905288614     -0.013407893019     -0.093313181633
 DF-MP2-F12/3C(FIX)                    -0.080263669576     -0.013430837179     -0.093694506755

 DF-MP2-F12 correlation energies:
 --------------------------------
 Approx.                                    Singlet             Triplet             Ecorr            Total Energy
 DF-MP2                                -0.537337319007     -0.342773020013     -0.880110339020   -264.666034451429
 DF-MP2-F12/3*C(DX,FIX)                -0.634842506905     -0.359723880561     -0.994566387466   -264.780490499874
 DF-MP2-F12/3*C(FIX)                   -0.617242607622     -0.356180913032     -0.973423520653   -264.759347633062
 DF-MP2-F12/3C(FIX)                    -0.617600988583     -0.356203857192     -0.973804845775   -264.759728958183

 SCS-DF-MP2 energies (F_SING= 1.20000  F_TRIP= 0.62222  F_PARALLEL= 0.33333):
 ----------------------------------------------------------------------------
 SCS-DF-MP2                            -0.858085773039   -264.644009885447
 SCS-DF-MP2-F12/3*C(DX,FIX)            -0.985639200635   -264.771563313043
 SCS-DF-MP2-F12/3*C(FIX)               -0.962314808366   -264.748238920774
 SCS-DF-MP2-F12/3C(FIX)                -0.962759141886   -264.748683254294
 Symmetry transformation completed.

 Number of N-1 electron functions:              12
 Number of N-2 electron functions:              78
 Number of singly external CSFs:              2568
 Number of doubly external CSFs:           3298596
 Total number of CSFs:                     3301165

 Pair and operator lists are different

 Length of J-op  integral file:             474.22 MB
 Length of K-op  integral file:             572.29 MB
 Length of 3-ext integral record:             0.00 MB

 For full I/O caching in triples, increase memory by 50.81 Mwords to 151.09 Mwords.

 Integral transformation finished. Total CPU:  10.30 sec, npass=  1  Memory used:  87.46 MW

 Reference energy:                   -263.78592411

 Adding F12 terms to K(Cij), methodcc=6,  factor=1.0

 ITER.      SQ.NORM     CORR.ENERGY   TOTAL ENERGY   ENERGY CHANGE        DEN1      VAR(S)    VAR(P)  DIIS     TIME
   1      1.20176033    -0.86219794  -264.64812205     0.01792881     0.04638102  0.71D-02  0.55D-02  1  1    22.33
   2      1.21598502    -0.85801393  -264.64393804     0.00418401    -0.02004550  0.85D-04  0.58D-03  2  2    28.16
   3      1.22129568    -0.85810805  -264.64403216    -0.00009412    -0.00235186  0.13D-03  0.32D-04  3  3    34.59
   4      1.22406594    -0.85798298  -264.64390709     0.00012507    -0.00140053  0.74D-05  0.40D-05  4  4    40.58
   5      1.22507944    -0.85794598  -264.64387010     0.00003699    -0.00036149  0.54D-06  0.28D-06  5  5    46.54
   6      1.22523893    -0.85791953  -264.64384365     0.00002645    -0.00000787  0.39D-07  0.23D-07  6  6    52.54
   7      1.22526774    -0.85791716  -264.64384127     0.00000238    -0.00000613  0.25D-08  0.39D-08  6  4    58.48
   8      1.22526803    -0.85791668  -264.64384079     0.00000048     0.00000192  0.38D-09  0.26D-09  6  1    64.50
   9      1.22526864    -0.85791674  -264.64384086    -0.00000007     0.00000055  0.25D-10  0.21D-10  6  2    70.52

 Norm of t1 vector:      0.10538125      S-energy:    -0.00000001      T1 diagnostic:  0.01521047
                                                                       D1 diagnostic:  0.04464244

 Adding energy correction from Wij-K(Fij), methodcc=6  factor=1.0
 
  CCSD correlation energy              -0.857916743328
  MP2-F12 correction (uncoupled)       -0.092542846851
  C*T doubles correction               -0.001473680725
  f12b correction                       0.015403112825


 Total CPU time for triples:    197.50 sec


 RESULTS
 =======

  Reference energy                   -263.769963145254
  F12 singles correction               -0.015960967155

 F12 singles corrections added to reference energy

  New reference energy               -263.785924112408

  F12a singlet correction              -0.080466375138
  F12a triplet correction              -0.013550152437
  F12a total correction                -0.094016527576

 F12a corrections for ansatz F12/3C(FIX) added to CCSD energy
 
  CCSD-F12a singlet pair energy        -0.641547839067
  CCSD-F12a triplet pair energy        -0.310385419628
  CCSD-F12a correlation energy         -0.951933270904

  Triples (T) contribution             -0.037509471469
  Total correlation energy             -0.989442742373

  CCSD-F12a total energy             -264.737857383312
  CCSD[T]-F12a energy                -264.777883669156
  CCSD-T-F12a energy                 -264.774437124692
 !CCSD(T)-F12a total energy          -264.775366854781

 F12b corrections for ansatz F12/3C(FIX) added to CCSD(T)-F12a energy

  CCSD-F12b singlet pair energy        -0.627368619885
  CCSD-F12b triplet pair energy        -0.309161525986
  CCSD-F12b correlation energy         -0.936530158078

  Triples (T) contribution             -0.037509471469
  Total correlation energy             -0.974039629548

  CCSD-F12b total energy             -264.722454270487
  CCSD[T]-F12b energy                -264.762480556331
  CCSD-T-F12b energy                 -264.759034011867
 !CCSD(T)-F12b total energy          -264.759963741956

 Timing summary (sec):

 STEP                 CPU(USER)    SYS     CPU(TOT)    WALL
 Transformation         10.40      1.01     11.41     11.40
 CCSD iterations        53.48      3.29     56.77     56.78
 Triples               197.50      2.68    200.18    200.10
 MP2-F12                 6.67      1.00      7.67      7.68
 F12b energy             3.40      0.05      3.45      3.45

 Program statistics:

 Available memory in ccsd:                99998934
 Min. memory needed in ccsd:               8644845
 Max. memory used in ccsd:                11598633
 Max. memory used in cckext:               8768967 (10 integral passes)



 **********************************************************************************************************************************
 DATASETS  * FILE   NREC   LENGTH (MB)   RECORD NAMES
              1      20      527.84       500      610      700      900      950      970     1000      129      960     1100   
                                          VAR    BASINP    GEOM    SYMINP    ZMAT    AOBASIS   BASIS     P2S    ABASIS      S 
                                         1400     1410     1200     1210     1080     1600     1650     1700      960(1)  1380   
                                           T        V       H0       H01     AOSYM     SMH    MOLCAS    OPER    ABASIS    JKOP   

              2       5        2.50       700     1000     2100     7360     7350   
                                         GEOM     BASIS     RHF    F12ABS    EF12   

 PROGRAMS   *        TOTAL   CCSD(T)        HF       INT
 CPU TIMES  *       281.94    271.70      6.16      4.01
 REAL TIME  *       290.65 SEC
 DISK USED  *         2.16 GB      
 SF USED    *         1.91 GB      
 GA USED    *         2.40 MB       (max)       0.00 MB       (current)
 **********************************************************************************************************************************

     CCSD(T)-F12        HF-SCF  
   -264.75996374   -263.76996315
 **********************************************************************************************************************************
 Variable memory released
