
 Primary working directories    : /scratch/kee
 Secondary working directories  : /scratch/kee
 Wavefunction directory         : /home/kee/wfu/
 Main file repository           : /scratch/kee/

 ARCHNAME  : Linux/x86_64
 FC        : /opt/intel/composer_xe_2015.0.090/bin/intel64/ifort
 FCVERSION : 15.0.0
 BLASLIB   : -L/opt/intel/mkl/lib/intel64 -lmkl_intel_ilp64 -lmkl_sequential -lmkl_core
 id        : emory

 Nodes     nprocs
 node18       3
 Number of processes for MPI-2 version of Molpro:   nprocs(total)=    4   nprocs(compute)=    3   nprocs(helper)=    1
 ga_uses_ma=false, calling ma_init with nominal heap.
 GA-space will be limited to   8.0 MW (determined by -G option)

 Using customized tuning parameters: mindgm=7; mindgv=32; mindgc=1; mindgr=1; noblas=0; mincuda=1000; minvec=7
 default implementation of scratch files=sf  

 ***,co2h2o
 memory,100,m
 basis avtz
 geomtype = xyz
 geometry = {
 6
       0.00000000
 O     0.00032100    1.15989800    0.00000000
 O     0.00041400   -1.15989400    0.00000000
 O    10.73971680    7.87741408    2.82562579
 H    11.53127132    8.18636973    2.38327715
 H    11.05370261    7.39878633    3.59374802
 C     0.01953800    0.00000300    0.00000000
 }
 hf
 ccsd(t)-f12
 ---

 Variables initialized (665), CPU time= 0.01 sec
 Commands  initialized (462), CPU time= 0.01 sec, 486 directives.
 Default parameters read. Elapsed time= 0.03 sec

 Checking input...
 Passed
1


                                         ***  PROGRAM SYSTEM MOLPRO  ***
                         Copyright, University College Cardiff Consultants Limited, 2008

                                    Version 2010.1 linked 9 Dec 2014 15:06:28 


 **********************************************************************************************************************************
 LABEL *   co2h2o                                                                        
 Linux-2.6.32-504.el6.x86_64/node18(x86_64) 64 bit mpp version                           DATE: 15-Dec-16          TIME: 01:14:57  
 **********************************************************************************************************************************

 Patch level:      19
 **********************************************************************************************************************************

 Variable memory set to  100000000 words,  buffer space   230000 words

 SETTING BASIS          =    AVTZ
 SETTING GEOMTYPE       =    XYZ

Geometry recognized as XYZ



 Recomputing integrals since basis changed


 Using spherical harmonics

 Library entry O      S aug-cc-pVTZ          selected for orbital group  1
 Library entry O      P aug-cc-pVTZ          selected for orbital group  1
 Library entry O      D aug-cc-pVTZ          selected for orbital group  1
 Library entry O      F aug-cc-pVTZ          selected for orbital group  1
 Library entry H      S aug-cc-pVTZ          selected for orbital group  2
 Library entry H      P aug-cc-pVTZ          selected for orbital group  2
 Library entry H      D aug-cc-pVTZ          selected for orbital group  2
 Library entry C      S aug-cc-pVTZ          selected for orbital group  3
 Library entry C      P aug-cc-pVTZ          selected for orbital group  3
 Library entry C      D aug-cc-pVTZ          selected for orbital group  3
 Library entry C      F aug-cc-pVTZ          selected for orbital group  3

1PROGRAM * SEWARD (Integral evaluation for generally contracted gaussian basis sets)     Author: Roland Lindh, 1990

 Geometry written to block  1 of record 700


 Point group  C1  



 ATOMIC COORDINATES

 NR  ATOM    CHARGE       X              Y              Z

   1  O       8.00    0.000606602    2.191889560    0.000000000
   2  O       8.00    0.000782347   -2.191882001    0.000000000
   3  O       8.00   20.295123481   14.886155235    5.339658893
   4  H       1.00   21.790944742   15.469996800    4.503741109
   5  H       1.00   20.888470671   13.981679869    6.791199543
   6  C       6.00    0.036921469    0.000005669    0.000000000

 Bond lengths in Bohr (Angstrom)

 1-6  2.192184701  2-6  2.192185575  3-4  1.810279194  3-5  1.810278110
     (1.160054182)     (1.160054644)     (0.957958491)     (0.957957918)

 Bond angles

  1-6-2  178.10622893   4-3-5  105.10354935

 NUCLEAR CHARGE:                   32
 NUMBER OF PRIMITIVE AOS:         322
 NUMBER OF SYMMETRY AOS:          282
 NUMBER OF CONTRACTIONS:          230   ( 230A   )
 NUMBER OF CORE ORBITALS:           4   (   4A   )
 NUMBER OF VALENCE ORBITALS:       18   (  18A   )


 NUCLEAR REPULSION ENERGY   76.07706590


 Eigenvalues of metric

         1 0.348E-03 0.384E-03 0.392E-03 0.419E-03 0.896E-03 0.914E-03 0.167E-02 0.174E-02


 Contracted 2-electron integrals neglected if value below      1.0D-11
 AO integral compression algorithm  1   Integral accuracy      1.0D-11

     356.778 MB (compressed) written to integral file ( 26.7%)

     Node minimum: 100.925 MB, node maximum: 142.082 MB


 NUMBER OF SORTED TWO-ELECTRON INTEGRALS:  117629820.     BUFFER LENGTH:  32768
 NUMBER OF SEGMENTS:   8  SEGMENT LENGTH:   15997437      RECORD LENGTH: 524288

 Memory used in sort:      16.55 MW

 SORT1 READ   167021590. AND WROTE    24882101. INTEGRALS IN     75 RECORDS. CPU TIME:     1.46 SEC, REAL TIME:     1.69 SEC
 SORT2 READ    74095149. AND WROTE   352862895. INTEGRALS IN   1626 RECORDS. CPU TIME:     0.74 SEC, REAL TIME:     0.94 SEC

 Node minimum:   117612110.  Node maximum:   117629820. integrals

 OPERATOR DM      FOR CENTER  0  COORDINATES:    0.000000    0.000000    0.000000


 **********************************************************************************************************************************
 DATASETS  * FILE   NREC   LENGTH (MB)   RECORD NAMES
              1      18        4.62       500      610      700      900      950      970     1000      129      960     1100   
                                          VAR    BASINP    GEOM    SYMINP    ZMAT    AOBASIS   BASIS     P2S    ABASIS      S 
                                         1400     1410     1200     1210     1080     1600     1650     1700   
                                           T        V       H0       H01     AOSYM     SMH    MOLCAS    OPER   

 PROGRAMS   *        TOTAL       INT
 CPU TIMES  *         4.08      3.99
 REAL TIME  *         4.61 SEC
 DISK USED  *         1.26 GB      
 GA USED    *         0.00 MB       (max)       0.00 MB       (current)
 **********************************************************************************************************************************

1PROGRAM * RHF-SCF (CLOSED SHELL)       Authors: W. Meyer, H.-J. Werner


 NUMBER OF ELECTRONS:      16+   16-    SPACE SYMMETRY=1    SPIN SYMMETRY=Singlet 
 CONVERGENCE THRESHOLDS:    1.00E-05 (Density)    1.00E-07 (Energy)
 MAX. NUMBER OF ITERATIONS:       60
 INTERPOLATION TYPE:            DIIS
 INTERPOLATION STEPS:              2 (START)      1 (STEP)
 LEVEL SHIFTS:                  0.00 (CLOSED)  0.00 (OPEN) 



 Orbital guess generated from atomic densities. Full valence occupancy:   22

 Molecular orbital dump at record        2100.2

 ITERATION    DDIFF          GRAD             ENERGY        2-EL.EN.            DIPOLE MOMENTS         DIIS
    1      0.000D+00      0.000D+00      -263.66135787    347.621415    1.12568   -0.16409    0.31507    0
    2      0.000D+00      0.468D-02      -263.72655257    343.073811    0.64454   -0.09463    0.18688    1
    3      0.749D-02      0.317D-02      -263.76941099    345.623515    0.76538   -0.11180    0.21732    2
    4      0.307D-02      0.296D-03      -263.76989928    345.409910    0.76848   -0.11210    0.21858    3
    5      0.356D-03      0.858D-04      -263.76995568    345.414203    0.76337   -0.11156    0.21706    4
    6      0.132D-03      0.344D-04      -263.76996255    345.427916    0.76398   -0.11152    0.21729    5
    7      0.433D-04      0.849D-05      -263.76996325    345.419732    0.76356   -0.11153    0.21716    6
    8      0.141D-04      0.187D-05      -263.76996330    345.421008    0.76357   -0.11147    0.21716    7
    9      0.382D-05      0.679D-06      -263.76996330    345.420829    0.76354   -0.11152    0.21715    0

 Final occupancy:  16

 !RHF STATE 1.1 Energy               -263.769963299442
 Nuclear energy                        76.07706590
 One-electron energy                 -512.55744393
 Two-electron energy                  172.71041473
 Virial quotient                       -1.00173770
 !RHF STATE 1.1 Dipole moment           0.76353896    -0.11152019     0.21715318
 Dipole moment /Debye                   1.94059535    -0.28343749     0.55191217

 Orbital energies:

         1.1          2.1          3.1          4.1          5.1          6.1          7.1          8.1          9.1         10.1
    -20.652078   -20.651995   -20.567101   -11.460160    -1.531442    -1.478320    -1.352845    -0.800222    -0.743092    -0.718631

        11.1         12.1         13.1         14.1         15.1         16.1         17.1         18.1
     -0.715237    -0.715227    -0.583691    -0.544063    -0.544037    -0.510164     0.029429     0.047591


 **********************************************************************************************************************************
 DATASETS  * FILE   NREC   LENGTH (MB)   RECORD NAMES
              1      18        4.62       500      610      700      900      950      970     1000      129      960     1100   
                                          VAR    BASINP    GEOM    SYMINP    ZMAT    AOBASIS   BASIS     P2S    ABASIS      S 
                                         1400     1410     1200     1210     1080     1600     1650     1700   
                                           T        V       H0       H01     AOSYM     SMH    MOLCAS    OPER   

              2       3        1.44       700     1000     2100   
                                         GEOM     BASIS     RHF  

 PROGRAMS   *        TOTAL        HF       INT
 CPU TIMES  *        10.22      6.15      3.99
 REAL TIME  *        10.91 SEC
 DISK USED  *         1.29 GB      
 SF USED    *         0.21 MB      
 GA USED    *         0.00 MB       (max)       0.00 MB       (current)
 **********************************************************************************************************************************


1PROGRAM * CCSD (Closed-shell coupled cluster)     Authors: C. Hampel, H.-J. Werner, 1991, M. Deegan, P.J. Knowles, 1992

                                  CCSD-F12 implementation by  H.-J. Werner, 2007

                   Density fitting integral evaluation by F.R. Manby, 2003,2007, G. Knizia, 2010

 Basis set CC-PVTZ/JKFIT generated.      Number of basis functions:   376 
 Basis set AUG-CC-PVTZ/MP2FIT generated. Number of basis functions:   516 

 Convergence thresholds:  THRVAR = 1.00D-08  THRDEN = 1.00D-06

 CCSD(T)     terms to be evaluated (factor= 1.000)


 Number of core orbitals:           4 (   4 )
 Number of closed-shell orbitals:  12 (  12 )
 Number of external orbitals:     214 ( 214 )

 Molecular orbitals read from record     2100.2  Type=RHF/CANONICAL (state 1.1)

 MP2-F12 correlation treatment (H.-J. Werner, 2006)
 --------------------------------------------------

 Using MP2-F12 with ansatz 3C(FIX)

 Using projected zeroth-order Hamiltonian (+Z)

 FOCKRIB=T FOCKRIC=T FOCKRIP=T CABSP=T CABSA=T CABSK=T CABSF=T GBC=F EBC=F DMAT=T NOFIK=T NOPAO=1 SOLVE=-1  USEPAO=0
 EXCH_A= T EXCH_B= F EXCH_C= F EXCH_P= F
 
 Geminal basis:    OPTFULL  GEM_TYPE=SLATER  BETA=1.0  NGEM=6

 Optimizing Gaussian exponents for each gem_beta

 Geminal optimization for beta= 1.0000
 Weight function:   m=0, omega= 1.4646

 Augmented Hessian optimization of geminal fit. Trust ratio= 0.40000
 Convergence reached after   2 iterations. Final gradient= 8.24D-16, Step= 4.32D-06, Delta= 1.28D-09
 
 Alpha:                 0.19532     0.81920     2.85917     9.50073    35.69989   197.79328
 Coeff:                 0.27070     0.30552     0.18297     0.10986     0.06810     0.04224
 

 All pairs explicitly correlated. Number of r12-pairs:           78
 
 AO(A)-basis ORBITAL           loaded. Number of functions:     230
 RI(R)-basis CC-PVTZ/JKFIT     loaded. Number of functions:     376
 DF-basis CC-PVTZ/JKFIT        loaded. Number of functions:     376

 Screening thresholds:   THRAO=  1.00D-10  THRMO=  1.00D-09  THRPROD=  1.00D-09
                         THRSW=  1.00D-05  THROV=  1.00D-12  THRF12=   1.00D-08

 CPU time for Fock operators                      0.75 sec
 
 Construction of ABS:
 Smallest eigenvalue of S          2.57E-04  (threshold= 1.00E-08)
 Ratio eigmin/eigmax               1.83E-06  (threshold= 1.00E-09)
 Smallest eigenvalue of S kept     2.57E-04  (threshold= 2.57E-04, 0 functions deleted, 376 kept)
 
 Construction of CABS:
 Smallest eigenvalue of S          2.29E-08  (threshold= 1.00E-08)
 Ratio eigmin/eigmax               2.29E-08  (threshold= 1.00E-09)
 Smallest eigenvalue of S kept     2.29E-08  (threshold= 2.29E-08, 0 functions deleted, 376 kept)
 
 CPU time for CABS singles                        0.15 sec

 CABS-singles contribution of  -0.01596097 patched into reference energy.
 New reference energy        -263.78592426
 
 AO(A)-basis ORBITAL           loaded. Number of functions:     230
 RI(R)-basis CC-PVTZ/JKFIT     loaded. Number of functions:     376
 DF-basis AUG-CC-PVTZ/MP2FIT   loaded. Number of functions:     516

 Screening thresholds:   THRAO=  1.00D-10  THRMO=  1.00D-09  THRPROD=  1.00D-09
                         THRSW=  1.00D-05  THROV=  1.00D-12  THRF12=   1.00D-08

 CPU time for 3-index integral evaluation         1.33 sec
 CPU time for first  half transformation          0.06 sec (21602.4 MFLOP/sec)
 CPU time for second half transformation          0.02 sec ( 3858.3 MFLOP/sec)
 CPU time for sorting                             0.08 sec
 CPU time for fitting                             0.03 sec (46435.0 MFLOP/sec)
 CPU time for tilde quantities                    0.06 sec (32856.0 MFLOP/sec)
 CPU time for assembly                            0.68 sec (35159.9 MFLOP/sec)
 CPU time for tranop_f12                          0.81 sec (37400.6 MFLOP/sec)
 CPU time for f12 integrals (total)               4.82 sec
 F12-matrices built in  3 passes.
 F12-matrices built in  3 passes.
 F12-matrices built in  3 passes.
 F12-matrices built in  3 passes.
 FC-matrix built in  3 passes.
 CPU time for f12 matrices (total)                0.44 sec

 Diagonal F12 approximation with fixed coefficients:  TSING= 0.500,  TTRIP= 0.250 (scaled by -1/beta)

 DF-MP2-F12 energy corrections:
 ------------------------------
 Approx.                                    Singlet             Triplet             Total
 DF-MP2-F12/3*C(DX,FIX)                -0.097505188424     -0.016950860467     -0.114456048891
 DF-MP2-F12/3*C(FIX)                   -0.079905288590     -0.013407892006     -0.093313180597
 DF-MP2-F12/3C(FIX)                    -0.080263669618     -0.013430836157     -0.093694505775

 DF-MP2-F12 correlation energies:
 --------------------------------
 Approx.                                    Singlet             Triplet             Ecorr            Total Energy
 DF-MP2                                -0.537337296012     -0.342772991965     -0.880110287976   -264.666034552860
 DF-MP2-F12/3*C(DX,FIX)                -0.634842484436     -0.359723852431     -0.994566336867   -264.780490601751
 DF-MP2-F12/3*C(FIX)                   -0.617242584602     -0.356180883971     -0.973423468573   -264.759347733457
 DF-MP2-F12/3C(FIX)                    -0.617600965630     -0.356203828122     -0.973804793752   -264.759729058636

 SCS-DF-MP2 energies (F_SING= 1.20000  F_TRIP= 0.62222  F_PARALLEL= 0.33333):
 ----------------------------------------------------------------------------
 SCS-DF-MP2                            -0.858085727992   -264.644009992876
 SCS-DF-MP2-F12/3*C(DX,FIX)            -0.985639156169   -264.771563421053
 SCS-DF-MP2-F12/3*C(FIX)               -0.962314762660   -264.748239027544
 SCS-DF-MP2-F12/3C(FIX)                -0.962759096254   -264.748683361138
 Symmetry transformation completed.

 Number of N-1 electron functions:              12
 Number of N-2 electron functions:              78
 Number of singly external CSFs:              2568
 Number of doubly external CSFs:           3298596
 Total number of CSFs:                     3301165

 Pair and operator lists are different

 Length of J-op  integral file:             474.22 MB
 Length of K-op  integral file:             572.29 MB
 Length of 3-ext integral record:             0.00 MB

 For full I/O caching in triples, increase memory by 50.81 Mwords to 151.09 Mwords.

 Integral transformation finished. Total CPU:  10.01 sec, npass=  1  Memory used:  87.46 MW

 Reference energy:                   -263.78592426

 Adding F12 terms to K(Cij), methodcc=6,  factor=1.0

 ITER.      SQ.NORM     CORR.ENERGY   TOTAL ENERGY   ENERGY CHANGE        DEN1      VAR(S)    VAR(P)  DIIS     TIME
   1      1.20176031    -0.86219790  -264.64812216     0.01792880     0.04638100  0.71D-02  0.55D-02  1  1    21.98
   2      1.21598500    -0.85801389  -264.64393816     0.00418401    -0.02004549  0.85D-04  0.58D-03  2  2    27.52
   3      1.22129565    -0.85810801  -264.64403228    -0.00009412    -0.00235186  0.13D-03  0.32D-04  3  3    33.00
   4      1.22406592    -0.85798294  -264.64390720     0.00012507    -0.00140053  0.74D-05  0.40D-05  4  4    38.46
   5      1.22507941    -0.85794595  -264.64387021     0.00003699    -0.00036149  0.54D-06  0.28D-06  5  5    43.88
   6      1.22523891    -0.85791950  -264.64384376     0.00002645    -0.00000787  0.39D-07  0.23D-07  6  6    49.29
   7      1.22526772    -0.85791712  -264.64384139     0.00000238    -0.00000613  0.25D-08  0.39D-08  6  4    54.75
   8      1.22526800    -0.85791664  -264.64384090     0.00000048     0.00000192  0.38D-09  0.26D-09  6  1    60.21
   9      1.22526861    -0.85791671  -264.64384097    -0.00000007     0.00000055  0.25D-10  0.21D-10  6  2    65.68

 Norm of t1 vector:      0.10538125      S-energy:    -0.00000001      T1 diagnostic:  0.01521047
                                                                       D1 diagnostic:  0.04464244

 Adding energy correction from Wij-K(Fij), methodcc=6  factor=1.0
 
  CCSD correlation energy              -0.857916705341
  MP2-F12 correction (uncoupled)       -0.092542845670
  C*T doubles correction               -0.001473680712
  f12b correction                       0.015403112694


 Total CPU time for triples:    182.67 sec


 RESULTS
 =======

  Reference energy                   -263.769963299442
  F12 singles correction               -0.015960965442

 F12 singles corrections added to reference energy

  New reference energy               -263.785924264884

  F12a singlet correction              -0.080466374942
  F12a triplet correction              -0.013550151440
  F12a total correction                -0.094016526382

 F12a corrections for ansatz F12/3C(FIX) added to CCSD energy
 
  CCSD-F12a singlet pair energy        -0.641547819587
  CCSD-F12a triplet pair energy        -0.310385399503
  CCSD-F12a correlation energy         -0.951933231723

  Triples (T) contribution             -0.037509464264
  Total correlation energy             -0.989442695986

  CCSD-F12a total energy             -264.737857496607
  CCSD[T]-F12a energy                -264.777883774263
  CCSD-T-F12a energy                 -264.774437231188
 !CCSD(T)-F12a total energy          -264.775366960870

 F12b corrections for ansatz F12/3C(FIX) added to CCSD(T)-F12a energy

  CCSD-F12b singlet pair energy        -0.627368600513
  CCSD-F12b triplet pair energy        -0.309161505884
  CCSD-F12b correlation energy         -0.936530119029

  Triples (T) contribution             -0.037509464264
  Total correlation energy             -0.974039583293

  CCSD-F12b total energy             -264.722454383913
  CCSD[T]-F12b energy                -264.762480661569
  CCSD-T-F12b energy                 -264.759034118494
 !CCSD(T)-F12b total energy          -264.759963848177

 Timing summary (sec):

 STEP                 CPU(USER)    SYS     CPU(TOT)    WALL
 Transformation         10.10      0.97     11.07     11.07
 CCSD iterations        48.96      2.47     51.43     51.99
 Triples               182.67      1.98    184.65    184.56
 MP2-F12                 6.63      0.98      7.61      7.61
 F12b energy             3.07      0.03      3.10      3.10

 Program statistics:

 Available memory in ccsd:                99998934
 Min. memory needed in ccsd:               8644845
 Max. memory used in ccsd:                11598633
 Max. memory used in cckext:               8768967 (10 integral passes)



 **********************************************************************************************************************************
 DATASETS  * FILE   NREC   LENGTH (MB)   RECORD NAMES
              1      20      527.84       500      610      700      900      950      970     1000      129      960     1100   
                                          VAR    BASINP    GEOM    SYMINP    ZMAT    AOBASIS   BASIS     P2S    ABASIS      S 
                                         1400     1410     1200     1210     1080     1600     1650     1700      960(1)  1380   
                                           T        V       H0       H01     AOSYM     SMH    MOLCAS    OPER    ABASIS    JKOP   

              2       5        2.50       700     1000     2100     7360     7350   
                                         GEOM     BASIS     RHF    F12ABS    EF12   

 PROGRAMS   *        TOTAL   CCSD(T)        HF       INT
 CPU TIMES  *       261.90    251.68      6.15      3.99
 REAL TIME  *       269.54 SEC
 DISK USED  *         2.16 GB      
 SF USED    *         1.91 GB      
 GA USED    *         2.40 MB       (max)       0.00 MB       (current)
 **********************************************************************************************************************************

     CCSD(T)-F12        HF-SCF  
   -264.75996385   -263.76996330
 **********************************************************************************************************************************
 Variable memory released
