
 Primary working directories    : /scratch/kee
 Secondary working directories  : /scratch/kee
 Wavefunction directory         : /home/kee/wfu/
 Main file repository           : /scratch/kee/

 ARCHNAME  : Linux/x86_64
 FC        : /opt/intel/composer_xe_2015.0.090/bin/intel64/ifort
 FCVERSION : 15.0.0
 BLASLIB   : -L/opt/intel/mkl/lib/intel64 -lmkl_intel_ilp64 -lmkl_sequential -lmkl_core
 id        : emory

 Nodes     nprocs
 node21       3
 Number of processes for MPI-2 version of Molpro:   nprocs(total)=    4   nprocs(compute)=    3   nprocs(helper)=    1
 ga_uses_ma=false, calling ma_init with nominal heap.
 GA-space will be limited to   8.0 MW (determined by -G option)

 Using customized tuning parameters: mindgm=7; mindgv=32; mindgc=1; mindgr=1; noblas=0; mincuda=1000; minvec=7
 default implementation of scratch files=sf  

 ***,co2h2o
 memory,100,m
 basis avtz
 geomtype = xyz
 geometry = {
 6
       0.00000000
 O     0.00032100    1.15989800    0.00000000
 O     0.00041400   -1.15989400    0.00000000
 O     5.77375162    4.22831924    1.51669620
 H     6.56530614    4.53727489    1.07434756
 H     6.08773743    3.74969149    2.28481843
 C     0.01953800    0.00000300    0.00000000
 }
 hf
 ccsd(t)-f12
 ---

 Variables initialized (665), CPU time= 0.00 sec
 Commands  initialized (462), CPU time= 0.01 sec, 486 directives.
 Default parameters read. Elapsed time= 0.03 sec

 Checking input...
 Passed
1


                                         ***  PROGRAM SYSTEM MOLPRO  ***
                         Copyright, University College Cardiff Consultants Limited, 2008

                                    Version 2010.1 linked 9 Dec 2014 15:06:28 


 **********************************************************************************************************************************
 LABEL *   co2h2o                                                                        
 Linux-2.6.32-504.el6.x86_64/node21(x86_64) 64 bit mpp version                           DATE: 15-Dec-16          TIME: 00:31:48  
 **********************************************************************************************************************************

 Patch level:      19
 **********************************************************************************************************************************

 Variable memory set to  100000000 words,  buffer space   230000 words

 SETTING BASIS          =    AVTZ
 SETTING GEOMTYPE       =    XYZ

Geometry recognized as XYZ



 Recomputing integrals since basis changed


 Using spherical harmonics

 Library entry O      S aug-cc-pVTZ          selected for orbital group  1
 Library entry O      P aug-cc-pVTZ          selected for orbital group  1
 Library entry O      D aug-cc-pVTZ          selected for orbital group  1
 Library entry O      F aug-cc-pVTZ          selected for orbital group  1
 Library entry H      S aug-cc-pVTZ          selected for orbital group  2
 Library entry H      P aug-cc-pVTZ          selected for orbital group  2
 Library entry H      D aug-cc-pVTZ          selected for orbital group  2
 Library entry C      S aug-cc-pVTZ          selected for orbital group  3
 Library entry C      P aug-cc-pVTZ          selected for orbital group  3
 Library entry C      D aug-cc-pVTZ          selected for orbital group  3
 Library entry C      F aug-cc-pVTZ          selected for orbital group  3

1PROGRAM * SEWARD (Integral evaluation for generally contracted gaussian basis sets)     Author: Roland Lindh, 1990

 Geometry written to block  1 of record 700


 Point group  C1  



 ATOMIC COORDINATES

 NR  ATOM    CHARGE       X              Y              Z

   1  O       8.00    0.000606602    2.191889560    0.000000000
   2  O       8.00    0.000782347   -2.191882001    0.000000000
   3  O       8.00   10.910809313    7.990365360    2.866140443
   4  H       1.00   12.406630574    8.574206925    2.030222658
   5  H       1.00   11.504156503    7.085889993    4.317681093
   6  C       6.00    0.036921469    0.000005669    0.000000000

 Bond lengths in Bohr (Angstrom)

 1-6  2.192184701  2-6  2.192185575  3-4  1.810279194  3-5  1.810278110
     (1.160054182)     (1.160054644)     (0.957958491)     (0.957957918)

 Bond angles

  1-6-2  178.10622893   4-3-5  105.10354935

 NUCLEAR CHARGE:                   32
 NUMBER OF PRIMITIVE AOS:         322
 NUMBER OF SYMMETRY AOS:          282
 NUMBER OF CONTRACTIONS:          230   ( 230A   )
 NUMBER OF CORE ORBITALS:           4   (   4A   )
 NUMBER OF VALENCE ORBITALS:       18   (  18A   )


 NUCLEAR REPULSION ENERGY   83.30885674


 Eigenvalues of metric

         1 0.344E-03 0.376E-03 0.391E-03 0.409E-03 0.895E-03 0.914E-03 0.165E-02 0.173E-02


 Contracted 2-electron integrals neglected if value below      1.0D-11
 AO integral compression algorithm  1   Integral accuracy      1.0D-11

     554.959 MB (compressed) written to integral file ( 20.1%)

     Node minimum: 177.471 MB, node maximum: 197.657 MB


 NUMBER OF SORTED TWO-ELECTRON INTEGRALS:  117629820.     BUFFER LENGTH:  32768
 NUMBER OF SEGMENTS:   8  SEGMENT LENGTH:   15997437      RECORD LENGTH: 524288

 Memory used in sort:      16.55 MW

 SORT1 READ   345850895. AND WROTE    40933278. INTEGRALS IN    121 RECORDS. CPU TIME:     3.14 SEC, REAL TIME:     3.60 SEC
 SORT2 READ   122090762. AND WROTE   352862895. INTEGRALS IN   2058 RECORDS. CPU TIME:     1.17 SEC, REAL TIME:     1.53 SEC

 Node minimum:   117612110.  Node maximum:   117629820. integrals

 OPERATOR DM      FOR CENTER  0  COORDINATES:    0.000000    0.000000    0.000000


 **********************************************************************************************************************************
 DATASETS  * FILE   NREC   LENGTH (MB)   RECORD NAMES
              1      18        4.62       500      610      700      900      950      970     1000      129      960     1100   
                                          VAR    BASINP    GEOM    SYMINP    ZMAT    AOBASIS   BASIS     P2S    ABASIS      S 
                                         1400     1410     1200     1210     1080     1600     1650     1700   
                                           T        V       H0       H01     AOSYM     SMH    MOLCAS    OPER   

 PROGRAMS   *        TOTAL       INT
 CPU TIMES  *         7.64      7.58
 REAL TIME  *         8.67 SEC
 DISK USED  *         1.98 GB      
 GA USED    *         0.00 MB       (max)       0.00 MB       (current)
 **********************************************************************************************************************************

1PROGRAM * RHF-SCF (CLOSED SHELL)       Authors: W. Meyer, H.-J. Werner


 NUMBER OF ELECTRONS:      16+   16-    SPACE SYMMETRY=1    SPIN SYMMETRY=Singlet 
 CONVERGENCE THRESHOLDS:    1.00E-05 (Density)    1.00E-07 (Energy)
 MAX. NUMBER OF ITERATIONS:       60
 INTERPOLATION TYPE:            DIIS
 INTERPOLATION STEPS:              2 (START)      1 (STEP)
 LEVEL SHIFTS:                  0.00 (CLOSED)  0.00 (OPEN) 



 Orbital guess generated from atomic densities. Full valence occupancy:   22

 Molecular orbital dump at record        2100.2

 ITERATION    DDIFF          GRAD             ENERGY        2-EL.EN.            DIPOLE MOMENTS         DIIS
    1      0.000D+00      0.000D+00      -263.66122909    362.221545    1.12572   -0.16406    0.31508    0
    2      0.000D+00      0.468D-02      -263.72644533    357.620096    0.64795   -0.07991    0.18700    1
    3      0.749D-02      0.317D-02      -263.76936056    360.183049    0.76807   -0.10424    0.21738    2
    4      0.308D-02      0.296D-03      -263.76984894    359.969752    0.77106   -0.10262    0.21860    3
    5      0.356D-03      0.859D-04      -263.76990539    359.973534    0.76601   -0.10337    0.21709    4
    6      0.132D-03      0.345D-04      -263.76991228    359.987267    0.76661   -0.10251    0.21731    5
    7      0.434D-04      0.859D-05      -263.76991299    359.979139    0.76620   -0.10291    0.21718    6
    8      0.142D-04      0.206D-05      -263.76991304    359.980201    0.76619   -0.10259    0.21718    7
    9      0.388D-05      0.126D-05      -263.76991304    359.980219    0.76618   -0.10286    0.21718    0

 Final occupancy:  16

 !RHF STATE 1.1 Energy               -263.769913043679
 Nuclear energy                        83.30885674
 One-electron energy                 -527.06887941
 Two-electron energy                  179.99010963
 Virial quotient                       -1.00173705
 !RHF STATE 1.1 Dipole moment           0.76617568    -0.10286184     0.21717668
 Dipole moment /Debye                   1.94729678    -0.26143160     0.55197192

 Orbital energies:

         1.1          2.1          3.1          4.1          5.1          6.1          7.1          8.1          9.1         10.1
    -20.650009   -20.649591   -20.567251   -11.457903    -1.529207    -1.476077    -1.352997    -0.797965    -0.740824    -0.718785

        11.1         12.1         13.1         14.1         15.1         16.1         17.1         18.1
     -0.713016    -0.712983    -0.583810    -0.541822    -0.541778    -0.510312     0.028481     0.045704


 **********************************************************************************************************************************
 DATASETS  * FILE   NREC   LENGTH (MB)   RECORD NAMES
              1      18        4.62       500      610      700      900      950      970     1000      129      960     1100   
                                          VAR    BASINP    GEOM    SYMINP    ZMAT    AOBASIS   BASIS     P2S    ABASIS      S 
                                         1400     1410     1200     1210     1080     1600     1650     1700   
                                           T        V       H0       H01     AOSYM     SMH    MOLCAS    OPER   

              2       3        1.44       700     1000     2100   
                                         GEOM     BASIS     RHF  

 PROGRAMS   *        TOTAL        HF       INT
 CPU TIMES  *        16.71      9.06      7.58
 REAL TIME  *        17.98 SEC
 DISK USED  *         2.02 GB      
 SF USED    *         0.21 MB      
 GA USED    *         0.00 MB       (max)       0.00 MB       (current)
 **********************************************************************************************************************************


1PROGRAM * CCSD (Closed-shell coupled cluster)     Authors: C. Hampel, H.-J. Werner, 1991, M. Deegan, P.J. Knowles, 1992

                                  CCSD-F12 implementation by  H.-J. Werner, 2007

                   Density fitting integral evaluation by F.R. Manby, 2003,2007, G. Knizia, 2010

 Basis set CC-PVTZ/JKFIT generated.      Number of basis functions:   376 
 Basis set AUG-CC-PVTZ/MP2FIT generated. Number of basis functions:   516 

 Convergence thresholds:  THRVAR = 1.00D-08  THRDEN = 1.00D-06

 CCSD(T)     terms to be evaluated (factor= 1.000)


 Number of core orbitals:           4 (   4 )
 Number of closed-shell orbitals:  12 (  12 )
 Number of external orbitals:     214 ( 214 )

 Molecular orbitals read from record     2100.2  Type=RHF/CANONICAL (state 1.1)

 MP2-F12 correlation treatment (H.-J. Werner, 2006)
 --------------------------------------------------

 Using MP2-F12 with ansatz 3C(FIX)

 Using projected zeroth-order Hamiltonian (+Z)

 FOCKRIB=T FOCKRIC=T FOCKRIP=T CABSP=T CABSA=T CABSK=T CABSF=T GBC=F EBC=F DMAT=T NOFIK=T NOPAO=1 SOLVE=-1  USEPAO=0
 EXCH_A= T EXCH_B= F EXCH_C= F EXCH_P= F
 
 Geminal basis:    OPTFULL  GEM_TYPE=SLATER  BETA=1.0  NGEM=6

 Optimizing Gaussian exponents for each gem_beta

 Geminal optimization for beta= 1.0000
 Weight function:   m=0, omega= 1.4646

 Augmented Hessian optimization of geminal fit. Trust ratio= 0.40000
 Convergence reached after   2 iterations. Final gradient= 8.24D-16, Step= 4.32D-06, Delta= 1.28D-09
 
 Alpha:                 0.19532     0.81920     2.85917     9.50073    35.69989   197.79328
 Coeff:                 0.27070     0.30552     0.18297     0.10986     0.06810     0.04224
 

 All pairs explicitly correlated. Number of r12-pairs:           78
 
 AO(A)-basis ORBITAL           loaded. Number of functions:     230
 RI(R)-basis CC-PVTZ/JKFIT     loaded. Number of functions:     376
 DF-basis CC-PVTZ/JKFIT        loaded. Number of functions:     376

 Screening thresholds:   THRAO=  1.00D-10  THRMO=  1.00D-09  THRPROD=  1.00D-09
                         THRSW=  1.00D-05  THROV=  1.00D-12  THRF12=   1.00D-08

 CPU time for Fock operators                      0.95 sec
 
 Construction of ABS:
 Smallest eigenvalue of S          2.57E-04  (threshold= 1.00E-08)
 Ratio eigmin/eigmax               1.83E-06  (threshold= 1.00E-09)
 Smallest eigenvalue of S kept     2.57E-04  (threshold= 2.57E-04, 0 functions deleted, 376 kept)
 
 Construction of CABS:
 Smallest eigenvalue of S          2.29E-08  (threshold= 1.00E-08)
 Ratio eigmin/eigmax               2.29E-08  (threshold= 1.00E-09)
 Smallest eigenvalue of S kept     2.29E-08  (threshold= 2.29E-08, 0 functions deleted, 376 kept)
 
 CPU time for CABS singles                        0.17 sec

 CABS-singles contribution of  -0.01596066 patched into reference energy.
 New reference energy        -263.78587371
 
 AO(A)-basis ORBITAL           loaded. Number of functions:     230
 RI(R)-basis CC-PVTZ/JKFIT     loaded. Number of functions:     376
 DF-basis AUG-CC-PVTZ/MP2FIT   loaded. Number of functions:     516

 Screening thresholds:   THRAO=  1.00D-10  THRMO=  1.00D-09  THRPROD=  1.00D-09
                         THRSW=  1.00D-05  THROV=  1.00D-12  THRF12=   1.00D-08

 CPU time for 3-index integral evaluation         2.01 sec
 CPU time for first  half transformation          0.22 sec (12122.9 MFLOP/sec)
 CPU time for second half transformation          0.01 sec (10054.6 MFLOP/sec)
 CPU time for sorting                             0.17 sec
 CPU time for fitting                             0.05 sec (27861.0 MFLOP/sec)
 CPU time for tilde quantities                    0.08 sec (23111.0 MFLOP/sec)
 CPU time for assembly                            0.83 sec (28168.0 MFLOP/sec)
 CPU time for tranop_f12                          1.17 sec (19960.5 MFLOP/sec)
 CPU time for f12 integrals (total)               6.94 sec
 F12-matrices built in  3 passes.
 F12-matrices built in  3 passes.
 F12-matrices built in  3 passes.
 F12-matrices built in  3 passes.
 FC-matrix built in  3 passes.
 CPU time for f12 matrices (total)                0.56 sec

 Diagonal F12 approximation with fixed coefficients:  TSING= 0.500,  TTRIP= 0.250 (scaled by -1/beta)

 DF-MP2-F12 energy corrections:
 ------------------------------
 Approx.                                    Singlet             Triplet             Total
 DF-MP2-F12/3*C(DX,FIX)                -0.097501516357     -0.016950208391     -0.114451724748
 DF-MP2-F12/3*C(FIX)                   -0.079901941612     -0.013407282256     -0.093309223868
 DF-MP2-F12/3C(FIX)                    -0.080260527062     -0.013430360697     -0.093690887759

 DF-MP2-F12 correlation energies:
 --------------------------------
 Approx.                                    Singlet             Triplet             Ecorr            Total Energy
 DF-MP2                                -0.537351224840     -0.342789945337     -0.880141170177   -264.666014875865
 DF-MP2-F12/3*C(DX,FIX)                -0.634852741197     -0.359740153729     -0.994592894925   -264.780466600613
 DF-MP2-F12/3*C(FIX)                   -0.617253166452     -0.356197227593     -0.973450394046   -264.759324099733
 DF-MP2-F12/3C(FIX)                    -0.617611751902     -0.356220306034     -0.973832057936   -264.759705763623

 SCS-DF-MP2 energies (F_SING= 1.20000  F_TRIP= 0.62222  F_PARALLEL= 0.33333):
 ----------------------------------------------------------------------------
 SCS-DF-MP2                            -0.858112991351   -264.643986697039
 SCS-DF-MP2-F12/3*C(DX,FIX)            -0.985661607312   -264.771535312999
 SCS-DF-MP2-F12/3*C(FIX)               -0.962337630245   -264.748211335933
 SCS-DF-MP2-F12/3C(FIX)                -0.962782292703   -264.748655998391
 Symmetry transformation completed.

 Number of N-1 electron functions:              12
 Number of N-2 electron functions:              78
 Number of singly external CSFs:              2568
 Number of doubly external CSFs:           3298596
 Total number of CSFs:                     3301165

 Pair and operator lists are different

 Length of J-op  integral file:             474.22 MB
 Length of K-op  integral file:             572.29 MB
 Length of 3-ext integral record:             0.00 MB

 For full I/O caching in triples, increase memory by 50.81 Mwords to 151.09 Mwords.

 Integral transformation finished. Total CPU:  13.38 sec, npass=  1  Memory used:  87.46 MW

 Reference energy:                   -263.78587371

 Adding F12 terms to K(Cij), methodcc=6,  factor=1.0

 ITER.      SQ.NORM     CORR.ENERGY   TOTAL ENERGY   ENERGY CHANGE        DEN1      VAR(S)    VAR(P)  DIIS     TIME
   1      1.20177083    -0.86222378  -264.64809749     0.01793377     0.04638964  0.71D-02  0.55D-02  1  1    30.54
   2      1.21599733    -0.85803879  -264.64391250     0.00418499    -0.02004801  0.85D-04  0.58D-03  2  2    38.71
   3      1.22130816    -0.85813285  -264.64400656    -0.00009406    -0.00235175  0.13D-03  0.32D-04  3  3    46.79
   4      1.22407865    -0.85800772  -264.64388143     0.00012513    -0.00140064  0.74D-05  0.40D-05  4  4    54.98
   5      1.22509225    -0.85797072  -264.64384442     0.00003701    -0.00036153  0.54D-06  0.28D-06  5  5    63.02
   6      1.22525179    -0.85794427  -264.64381797     0.00002645    -0.00000787  0.39D-07  0.23D-07  6  6    71.11
   7      1.22528061    -0.85794189  -264.64381560     0.00000238    -0.00000613  0.25D-08  0.39D-08  6  4    79.04
   8      1.22528091    -0.85794141  -264.64381511     0.00000048     0.00000191  0.38D-09  0.26D-09  6  1    86.78
   9      1.22528151    -0.85794148  -264.64381518    -0.00000007     0.00000055  0.25D-10  0.21D-10  6  2    94.56

 Norm of t1 vector:      0.10538392      S-energy:     0.00000029      T1 diagnostic:  0.01521086
                                                                       D1 diagnostic:  0.04464367

 Adding energy correction from Wij-K(Fij), methodcc=6  factor=1.0
 
  CCSD correlation energy              -0.857941475436
  MP2-F12 correction (uncoupled)       -0.092538884960
  C*T doubles correction               -0.001473745630
  f12b correction                       0.015402950190


 Total CPU time for triples:    225.76 sec


 RESULTS
 =======

  Reference energy                   -263.769913043678
  F12 singles correction               -0.015960662010

 F12 singles corrections added to reference energy

  New reference energy               -263.785873705688

  F12a singlet correction              -0.080463070368
  F12a triplet correction              -0.013549560221
  F12a total correction                -0.094012630590

 F12a corrections for ansatz F12/3C(FIX) added to CCSD energy
 
  CCSD-F12a singlet pair energy        -0.641556694435
  CCSD-F12a triplet pair energy        -0.310397706373
  CCSD-F12a correlation energy         -0.951954106026

  Triples (T) contribution             -0.037513904674
  Total correlation energy             -0.989468010700

  CCSD-F12a total energy             -264.737827811714
  CCSD[T]-F12a energy                -264.777858978097
  CCSD-T-F12a energy                 -264.774411824399
 !CCSD(T)-F12a total energy          -264.775341716388

 F12b corrections for ansatz F12/3C(FIX) added to CCSD(T)-F12a energy

  CCSD-F12b singlet pair energy        -0.627377645138
  CCSD-F12b triplet pair energy        -0.309173805480
  CCSD-F12b correlation energy         -0.936551155836

  Triples (T) contribution             -0.037513904674
  Total correlation energy             -0.974065060510

  CCSD-F12b total energy             -264.722424861524
  CCSD[T]-F12b energy                -264.762456027908
  CCSD-T-F12b energy                 -264.759008874209
 !CCSD(T)-F12b total energy          -264.759938766198

 Timing summary (sec):

 STEP                 CPU(USER)    SYS     CPU(TOT)    WALL
 Transformation         13.50      1.14     14.64     14.66
 CCSD iterations        71.83      2.93     74.76     74.74
 Triples               225.76      2.51    228.27    228.17
 MP2-F12                 9.25      1.22     10.47     10.48
 F12b energy             5.05      0.06      5.11      5.11

 Program statistics:

 Available memory in ccsd:                99998934
 Min. memory needed in ccsd:               8644845
 Max. memory used in ccsd:                11598633
 Max. memory used in cckext:               8768967 (10 integral passes)



 **********************************************************************************************************************************
 DATASETS  * FILE   NREC   LENGTH (MB)   RECORD NAMES
              1      20      527.84       500      610      700      900      950      970     1000      129      960     1100   
                                          VAR    BASINP    GEOM    SYMINP    ZMAT    AOBASIS   BASIS     P2S    ABASIS      S 
                                         1400     1410     1200     1210     1080     1600     1650     1700      960(1)  1380   
                                           T        V       H0       H01     AOSYM     SMH    MOLCAS    OPER    ABASIS    JKOP   

              2       5        2.50       700     1000     2100     7360     7350   
                                         GEOM     BASIS     RHF    F12ABS    EF12   

 PROGRAMS   *        TOTAL   CCSD(T)        HF       INT
 CPU TIMES  *       342.19    325.48      9.06      7.58
 REAL TIME  *       351.51 SEC
 DISK USED  *         2.88 GB      
 SF USED    *         1.91 GB      
 GA USED    *         2.40 MB       (max)       0.00 MB       (current)
 **********************************************************************************************************************************

     CCSD(T)-F12        HF-SCF  
   -264.75993877   -263.76991304
 **********************************************************************************************************************************
 Variable memory released
