
 Primary working directories    : /scratch/kee
 Secondary working directories  : /scratch/kee
 Wavefunction directory         : /home/kee/wfu/
 Main file repository           : /scratch/kee/

 ARCHNAME  : Linux/x86_64
 FC        : /opt/intel/composer_xe_2015.0.090/bin/intel64/ifort
 FCVERSION : 15.0.0
 BLASLIB   : -L/opt/intel/mkl/lib/intel64 -lmkl_intel_ilp64 -lmkl_sequential -lmkl_core
 id        : emory

 Nodes     nprocs
 node21       3
 Number of processes for MPI-2 version of Molpro:   nprocs(total)=    4   nprocs(compute)=    3   nprocs(helper)=    1
 ga_uses_ma=false, calling ma_init with nominal heap.
 GA-space will be limited to   8.0 MW (determined by -G option)

 Using customized tuning parameters: mindgm=7; mindgv=32; mindgc=1; mindgr=1; noblas=0; mincuda=1000; minvec=7
 default implementation of scratch files=sf  

 ***,co2h2o
 memory,100,m
 basis avtz
 geomtype = xyz
 geometry = {
 6
       0.00000000
 O     0.00032100    1.15989800    0.00000000
 O     0.00041400   -1.15989400    0.00000000
 O     6.01022615    4.40208566    1.57902618
 H     6.80178067    4.71104131    1.13667754
 H     6.32421196    3.92345791    2.34714841
 C     0.01953800    0.00000300    0.00000000
 }
 hf
 ccsd(t)-f12
 ---

 Variables initialized (665), CPU time= 0.00 sec
 Commands  initialized (462), CPU time= 0.01 sec, 486 directives.
 Default parameters read. Elapsed time= 0.04 sec

 Checking input...
 Passed
1


                                         ***  PROGRAM SYSTEM MOLPRO  ***
                         Copyright, University College Cardiff Consultants Limited, 2008

                                    Version 2010.1 linked 9 Dec 2014 15:06:28 


 **********************************************************************************************************************************
 LABEL *   co2h2o                                                                        
 Linux-2.6.32-504.el6.x86_64/node21(x86_64) 64 bit mpp version                           DATE: 15-Dec-16          TIME: 01:08:06  
 **********************************************************************************************************************************

 Patch level:      19
 **********************************************************************************************************************************

 Variable memory set to  100000000 words,  buffer space   230000 words

 SETTING BASIS          =    AVTZ
 SETTING GEOMTYPE       =    XYZ

Geometry recognized as XYZ



 Recomputing integrals since basis changed


 Using spherical harmonics

 Library entry O      S aug-cc-pVTZ          selected for orbital group  1
 Library entry O      P aug-cc-pVTZ          selected for orbital group  1
 Library entry O      D aug-cc-pVTZ          selected for orbital group  1
 Library entry O      F aug-cc-pVTZ          selected for orbital group  1
 Library entry H      S aug-cc-pVTZ          selected for orbital group  2
 Library entry H      P aug-cc-pVTZ          selected for orbital group  2
 Library entry H      D aug-cc-pVTZ          selected for orbital group  2
 Library entry C      S aug-cc-pVTZ          selected for orbital group  3
 Library entry C      P aug-cc-pVTZ          selected for orbital group  3
 Library entry C      D aug-cc-pVTZ          selected for orbital group  3
 Library entry C      F aug-cc-pVTZ          selected for orbital group  3

1PROGRAM * SEWARD (Integral evaluation for generally contracted gaussian basis sets)     Author: Roland Lindh, 1990

 Geometry written to block  1 of record 700


 Point group  C1  



 ATOMIC COORDINATES

 NR  ATOM    CHARGE       X              Y              Z

   1  O       8.00    0.000606602    2.191889560    0.000000000
   2  O       8.00    0.000782347   -2.191882001    0.000000000
   3  O       8.00   11.357681411    8.318736304    2.983927035
   4  H       1.00   12.853502672    8.902577870    2.148009250
   5  H       1.00   11.951028601    7.414260938    4.435467685
   6  C       6.00    0.036921469    0.000005669    0.000000000

 Bond lengths in Bohr (Angstrom)

 1-6  2.192184701  2-6  2.192185575  3-4  1.810279194  3-5  1.810278110
     (1.160054182)     (1.160054644)     (0.957958491)     (0.957957918)

 Bond angles

  1-6-2  178.10622893   4-3-5  105.10354935

 NUCLEAR CHARGE:                   32
 NUMBER OF PRIMITIVE AOS:         322
 NUMBER OF SYMMETRY AOS:          282
 NUMBER OF CONTRACTIONS:          230   ( 230A   )
 NUMBER OF CORE ORBITALS:           4   (   4A   )
 NUMBER OF VALENCE ORBITALS:       18   (  18A   )


 NUCLEAR REPULSION ENERGY   82.69667946


 Eigenvalues of metric

         1 0.345E-03 0.376E-03 0.391E-03 0.412E-03 0.896E-03 0.914E-03 0.166E-02 0.173E-02


 Contracted 2-electron integrals neglected if value below      1.0D-11
 AO integral compression algorithm  1   Integral accuracy      1.0D-11

     532.677 MB (compressed) written to integral file ( 19.9%)

     Node minimum: 173.015 MB, node maximum: 183.763 MB


 NUMBER OF SORTED TWO-ELECTRON INTEGRALS:  117629820.     BUFFER LENGTH:  32768
 NUMBER OF SEGMENTS:   8  SEGMENT LENGTH:   15997437      RECORD LENGTH: 524288

 Memory used in sort:      16.55 MW

 SORT1 READ   335066955. AND WROTE    38791356. INTEGRALS IN    114 RECORDS. CPU TIME:     3.10 SEC, REAL TIME:     3.51 SEC
 SORT2 READ   115749451. AND WROTE   352862895. INTEGRALS IN   1980 RECORDS. CPU TIME:     1.18 SEC, REAL TIME:     1.50 SEC

 Node minimum:   117612110.  Node maximum:   117629820. integrals

 OPERATOR DM      FOR CENTER  0  COORDINATES:    0.000000    0.000000    0.000000


 **********************************************************************************************************************************
 DATASETS  * FILE   NREC   LENGTH (MB)   RECORD NAMES
              1      18        4.62       500      610      700      900      950      970     1000      129      960     1100   
                                          VAR    BASINP    GEOM    SYMINP    ZMAT    AOBASIS   BASIS     P2S    ABASIS      S 
                                         1400     1410     1200     1210     1080     1600     1650     1700   
                                           T        V       H0       H01     AOSYM     SMH    MOLCAS    OPER   

 PROGRAMS   *        TOTAL       INT
 CPU TIMES  *         7.53      7.46
 REAL TIME  *         8.53 SEC
 DISK USED  *         1.87 GB      
 GA USED    *         0.00 MB       (max)       0.00 MB       (current)
 **********************************************************************************************************************************

1PROGRAM * RHF-SCF (CLOSED SHELL)       Authors: W. Meyer, H.-J. Werner


 NUMBER OF ELECTRONS:      16+   16-    SPACE SYMMETRY=1    SPIN SYMMETRY=Singlet 
 CONVERGENCE THRESHOLDS:    1.00E-05 (Density)    1.00E-07 (Energy)
 MAX. NUMBER OF ITERATIONS:       60
 INTERPOLATION TYPE:            DIIS
 INTERPOLATION STEPS:              2 (START)      1 (STEP)
 LEVEL SHIFTS:                  0.00 (CLOSED)  0.00 (OPEN) 



 Orbital guess generated from atomic densities. Full valence occupancy:   22

 Molecular orbital dump at record        2100.2

 ITERATION    DDIFF          GRAD             ENERGY        2-EL.EN.            DIPOLE MOMENTS         DIIS
    1      0.000D+00      0.000D+00      -263.66124878    360.982199    1.12570   -0.16407    0.31507    0
    2      0.000D+00      0.468D-02      -263.72646186    356.386739    0.64747   -0.08189    0.18699    1
    3      0.749D-02      0.317D-02      -263.76936804    358.948171    0.76768   -0.10526    0.21737    2
    4      0.308D-02      0.296D-03      -263.76985640    358.734854    0.77068   -0.10389    0.21860    3
    5      0.356D-03      0.859D-04      -263.76991284    358.738685    0.76562   -0.10448    0.21709    4
    6      0.132D-03      0.345D-04      -263.76991973    358.752422    0.76623   -0.10372    0.21731    5
    7      0.434D-04      0.857D-05      -263.76992044    358.744277    0.76581   -0.10407    0.21718    6
    8      0.142D-04      0.202D-05      -263.76992049    358.745381    0.76581   -0.10378    0.21718    7
    9      0.386D-05      0.118D-05      -263.76992049    358.745362    0.76579   -0.10403    0.21718    0

 Final occupancy:  16

 !RHF STATE 1.1 Energy               -263.769920489075
 Nuclear energy                        82.69667946
 One-electron energy                 -525.83928095
 Two-electron energy                  179.37268099
 Virial quotient                       -1.00173714
 !RHF STATE 1.1 Dipole moment           0.76579221    -0.10403054     0.21717658
 Dipole moment /Debye                   1.94632217    -0.26440194     0.55197164

 Orbital energies:

         1.1          2.1          3.1          4.1          5.1          6.1          7.1          8.1          9.1         10.1
    -20.650235   -20.649859   -20.567229   -11.458154    -1.529454    -1.476326    -1.352975    -0.798215    -0.741076    -0.718762

        11.1         12.1         13.1         14.1         15.1         16.1         17.1         18.1
     -0.713261    -0.713231    -0.583793    -0.542069    -0.542029    -0.510290     0.028501     0.045742


 **********************************************************************************************************************************
 DATASETS  * FILE   NREC   LENGTH (MB)   RECORD NAMES
              1      18        4.62       500      610      700      900      950      970     1000      129      960     1100   
                                          VAR    BASINP    GEOM    SYMINP    ZMAT    AOBASIS   BASIS     P2S    ABASIS      S 
                                         1400     1410     1200     1210     1080     1600     1650     1700   
                                           T        V       H0       H01     AOSYM     SMH    MOLCAS    OPER   

              2       3        1.44       700     1000     2100   
                                         GEOM     BASIS     RHF  

 PROGRAMS   *        TOTAL        HF       INT
 CPU TIMES  *        16.70      9.17      7.46
 REAL TIME  *        17.99 SEC
 DISK USED  *         1.90 GB      
 SF USED    *         0.21 MB      
 GA USED    *         0.00 MB       (max)       0.00 MB       (current)
 **********************************************************************************************************************************


1PROGRAM * CCSD (Closed-shell coupled cluster)     Authors: C. Hampel, H.-J. Werner, 1991, M. Deegan, P.J. Knowles, 1992

                                  CCSD-F12 implementation by  H.-J. Werner, 2007

                   Density fitting integral evaluation by F.R. Manby, 2003,2007, G. Knizia, 2010

 Basis set CC-PVTZ/JKFIT generated.      Number of basis functions:   376 
 Basis set AUG-CC-PVTZ/MP2FIT generated. Number of basis functions:   516 

 Convergence thresholds:  THRVAR = 1.00D-08  THRDEN = 1.00D-06

 CCSD(T)     terms to be evaluated (factor= 1.000)


 Number of core orbitals:           4 (   4 )
 Number of closed-shell orbitals:  12 (  12 )
 Number of external orbitals:     214 ( 214 )

 Molecular orbitals read from record     2100.2  Type=RHF/CANONICAL (state 1.1)

 MP2-F12 correlation treatment (H.-J. Werner, 2006)
 --------------------------------------------------

 Using MP2-F12 with ansatz 3C(FIX)

 Using projected zeroth-order Hamiltonian (+Z)

 FOCKRIB=T FOCKRIC=T FOCKRIP=T CABSP=T CABSA=T CABSK=T CABSF=T GBC=F EBC=F DMAT=T NOFIK=T NOPAO=1 SOLVE=-1  USEPAO=0
 EXCH_A= T EXCH_B= F EXCH_C= F EXCH_P= F
 
 Geminal basis:    OPTFULL  GEM_TYPE=SLATER  BETA=1.0  NGEM=6

 Optimizing Gaussian exponents for each gem_beta

 Geminal optimization for beta= 1.0000
 Weight function:   m=0, omega= 1.4646

 Augmented Hessian optimization of geminal fit. Trust ratio= 0.40000
 Convergence reached after   2 iterations. Final gradient= 8.24D-16, Step= 4.32D-06, Delta= 1.28D-09
 
 Alpha:                 0.19532     0.81920     2.85917     9.50073    35.69989   197.79328
 Coeff:                 0.27070     0.30552     0.18297     0.10986     0.06810     0.04224
 

 All pairs explicitly correlated. Number of r12-pairs:           78
 
 AO(A)-basis ORBITAL           loaded. Number of functions:     230
 RI(R)-basis CC-PVTZ/JKFIT     loaded. Number of functions:     376
 DF-basis CC-PVTZ/JKFIT        loaded. Number of functions:     376

 Screening thresholds:   THRAO=  1.00D-10  THRMO=  1.00D-09  THRPROD=  1.00D-09
                         THRSW=  1.00D-05  THROV=  1.00D-12  THRF12=   1.00D-08

 CPU time for Fock operators                      0.98 sec
 
 Construction of ABS:
 Smallest eigenvalue of S          2.57E-04  (threshold= 1.00E-08)
 Ratio eigmin/eigmax               1.83E-06  (threshold= 1.00E-09)
 Smallest eigenvalue of S kept     2.57E-04  (threshold= 2.57E-04, 0 functions deleted, 376 kept)
 
 Construction of CABS:
 Smallest eigenvalue of S          2.29E-08  (threshold= 1.00E-08)
 Ratio eigmin/eigmax               2.29E-08  (threshold= 1.00E-09)
 Smallest eigenvalue of S kept     2.29E-08  (threshold= 2.29E-08, 0 functions deleted, 376 kept)
 
 CPU time for CABS singles                        0.18 sec

 CABS-singles contribution of  -0.01596078 patched into reference energy.
 New reference energy        -263.78588127
 
 AO(A)-basis ORBITAL           loaded. Number of functions:     230
 RI(R)-basis CC-PVTZ/JKFIT     loaded. Number of functions:     376
 DF-basis AUG-CC-PVTZ/MP2FIT   loaded. Number of functions:     516

 Screening thresholds:   THRAO=  1.00D-10  THRMO=  1.00D-09  THRPROD=  1.00D-09
                         THRSW=  1.00D-05  THROV=  1.00D-12  THRF12=   1.00D-08

 CPU time for 3-index integral evaluation         1.98 sec
 CPU time for first  half transformation          0.22 sec (10786.1 MFLOP/sec)
 CPU time for second half transformation          0.02 sec ( 5329.7 MFLOP/sec)
 CPU time for sorting                             0.16 sec
 CPU time for fitting                             0.06 sec (23217.5 MFLOP/sec)
 CPU time for tilde quantities                    0.06 sec (30814.7 MFLOP/sec)
 CPU time for assembly                            0.83 sec (28464.1 MFLOP/sec)
 CPU time for tranop_f12                          0.95 sec (31528.5 MFLOP/sec)
 CPU time for f12 integrals (total)               6.42 sec
 F12-matrices built in  3 passes.
 F12-matrices built in  3 passes.
 F12-matrices built in  3 passes.
 F12-matrices built in  3 passes.
 FC-matrix built in  3 passes.
 CPU time for f12 matrices (total)                0.52 sec

 Diagonal F12 approximation with fixed coefficients:  TSING= 0.500,  TTRIP= 0.250 (scaled by -1/beta)

 DF-MP2-F12 energy corrections:
 ------------------------------
 Approx.                                    Singlet             Triplet             Total
 DF-MP2-F12/3*C(DX,FIX)                -0.097502409127     -0.016950366455     -0.114452775582
 DF-MP2-F12/3*C(FIX)                   -0.079902751696     -0.013407434091     -0.093310185786
 DF-MP2-F12/3C(FIX)                    -0.080261295946     -0.013430481901     -0.093691777847

 DF-MP2-F12 correlation energies:
 --------------------------------
 Approx.                                    Singlet             Triplet             Ecorr            Total Energy
 DF-MP2                                -0.537348463340     -0.342786533055     -0.880134996395   -264.666016264622
 DF-MP2-F12/3*C(DX,FIX)                -0.634850872468     -0.359736899510     -0.994587771978   -264.780469040204
 DF-MP2-F12/3*C(FIX)                   -0.617251215036     -0.356193967146     -0.973445182182   -264.759326450408
 DF-MP2-F12/3C(FIX)                    -0.617609759286     -0.356217014956     -0.973826774242   -264.759708042469

 SCS-DF-MP2 energies (F_SING= 1.20000  F_TRIP= 0.62222  F_PARALLEL= 0.33333):
 ----------------------------------------------------------------------------
 SCS-DF-MP2                            -0.858107554354   -264.643988822580
 SCS-DF-MP2-F12/3*C(DX,FIX)            -0.985657339990   -264.771538608216
 SCS-DF-MP2-F12/3*C(FIX)               -0.962333259823   -264.748214528049
 SCS-DF-MP2-F12/3C(FIX)                -0.962777853783   -264.748659122009
 Symmetry transformation completed.

 Number of N-1 electron functions:              12
 Number of N-2 electron functions:              78
 Number of singly external CSFs:              2568
 Number of doubly external CSFs:           3298596
 Total number of CSFs:                     3301165

 Pair and operator lists are different

 Length of J-op  integral file:             474.22 MB
 Length of K-op  integral file:             572.29 MB
 Length of 3-ext integral record:             0.00 MB

 For full I/O caching in triples, increase memory by 50.81 Mwords to 151.09 Mwords.

 Integral transformation finished. Total CPU:  12.61 sec, npass=  1  Memory used:  87.46 MW

 Reference energy:                   -263.78588127

 Adding F12 terms to K(Cij), methodcc=6,  factor=1.0

 ITER.      SQ.NORM     CORR.ENERGY   TOTAL ENERGY   ENERGY CHANGE        DEN1      VAR(S)    VAR(P)  DIIS     TIME
   1      1.20176884    -0.86221858  -264.64809984     0.01793281     0.04638804  0.71D-02  0.55D-02  1  1    28.76
   2      1.21599500    -0.85803373  -264.64391500     0.00418485    -0.02004755  0.85D-04  0.58D-03  2  2    36.45
   3      1.22130578    -0.85812780  -264.64400906    -0.00009407    -0.00235176  0.13D-03  0.32D-04  3  3    44.13
   4      1.22407623    -0.85800268  -264.64388394     0.00012512    -0.00140062  0.74D-05  0.40D-05  4  4    51.83
   5      1.22508981    -0.85796567  -264.64384694     0.00003700    -0.00036152  0.54D-06  0.28D-06  5  5    59.55
   6      1.22524934    -0.85793922  -264.64382049     0.00002645    -0.00000787  0.39D-07  0.23D-07  6  6    67.32
   7      1.22527816    -0.85793685  -264.64381811     0.00000238    -0.00000613  0.25D-08  0.39D-08  6  4    75.04
   8      1.22527845    -0.85793636  -264.64381763     0.00000048     0.00000191  0.38D-09  0.26D-09  6  1    82.77
   9      1.22527906    -0.85793643  -264.64381770    -0.00000007     0.00000055  0.25D-10  0.21D-10  6  2    90.49

 Norm of t1 vector:      0.10538339      S-energy:     0.00000024      T1 diagnostic:  0.01521078
                                                                       D1 diagnostic:  0.04464345

 Adding energy correction from Wij-K(Fij), methodcc=6  factor=1.0
 
  CCSD correlation energy              -0.857936430758
  MP2-F12 correction (uncoupled)       -0.092539811148
  C*T doubles correction               -0.001473760457
  f12b correction                       0.015402999832


 Total CPU time for triples:    220.27 sec


 RESULTS
 =======

  Reference energy                   -263.769920489076
  F12 singles correction               -0.015960779151

 F12 singles corrections added to reference energy

  New reference energy               -263.785881268226

  F12a singlet correction              -0.080463864683
  F12a triplet correction              -0.013549706922
  F12a total correction                -0.094013571605

 F12a corrections for ansatz F12/3C(FIX) added to CCSD energy
 
  CCSD-F12a singlet pair energy        -0.641555078345
  CCSD-F12a triplet pair energy        -0.310395160805
  CCSD-F12a correlation energy         -0.951950002363

  Triples (T) contribution             -0.037513004984
  Total correlation energy             -0.989463007347

  CCSD-F12a total energy             -264.737831270589
  CCSD[T]-F12a energy                -264.777861455934
  CCSD-T-F12a energy                 -264.774414410389
 !CCSD(T)-F12a total energy          -264.775344275573

 F12b corrections for ansatz F12/3C(FIX) added to CCSD(T)-F12a energy

  CCSD-F12b singlet pair energy        -0.627375977952
  CCSD-F12b triplet pair energy        -0.309171261365
  CCSD-F12b correlation energy         -0.936547002531

  Triples (T) contribution             -0.037513004984
  Total correlation energy             -0.974060007515

  CCSD-F12b total energy             -264.722428270757
  CCSD[T]-F12b energy                -264.762458456102
  CCSD-T-F12b energy                 -264.759011410556
 !CCSD(T)-F12b total energy          -264.759941275741

 Timing summary (sec):

 STEP                 CPU(USER)    SYS     CPU(TOT)    WALL
 Transformation         12.71      1.73     14.44     14.44
 CCSD iterations        69.12      3.75     72.87     72.88
 Triples               220.27      2.65    222.92    222.86
 MP2-F12                 8.68      1.23      9.91      9.91
 F12b energy             4.93      0.05      4.98      4.98

 Program statistics:

 Available memory in ccsd:                99998934
 Min. memory needed in ccsd:               8644845
 Max. memory used in ccsd:                11598633
 Max. memory used in cckext:               8768967 (10 integral passes)



 **********************************************************************************************************************************
 DATASETS  * FILE   NREC   LENGTH (MB)   RECORD NAMES
              1      20      527.84       500      610      700      900      950      970     1000      129      960     1100   
                                          VAR    BASINP    GEOM    SYMINP    ZMAT    AOBASIS   BASIS     P2S    ABASIS      S 
                                         1400     1410     1200     1210     1080     1600     1650     1700      960(1)  1380   
                                           T        V       H0       H01     AOSYM     SMH    MOLCAS    OPER    ABASIS    JKOP   

              2       5        2.50       700     1000     2100     7360     7350   
                                         GEOM     BASIS     RHF    F12ABS    EF12   

 PROGRAMS   *        TOTAL   CCSD(T)        HF       INT
 CPU TIMES  *       332.53    315.81      9.17      7.46
 REAL TIME  *       343.43 SEC
 DISK USED  *         2.77 GB      
 SF USED    *         1.91 GB      
 GA USED    *         2.40 MB       (max)       0.00 MB       (current)
 **********************************************************************************************************************************

     CCSD(T)-F12        HF-SCF  
   -264.75994128   -263.76992049
 **********************************************************************************************************************************
 Variable memory released
