
 Primary working directories    : /scratch/kee
 Secondary working directories  : /scratch/kee
 Wavefunction directory         : /home/kee/wfu/
 Main file repository           : /scratch/kee/

 ARCHNAME  : Linux/x86_64
 FC        : /opt/intel/composer_xe_2015.0.090/bin/intel64/ifort
 FCVERSION : 15.0.0
 BLASLIB   : -L/opt/intel/mkl/lib/intel64 -lmkl_intel_ilp64 -lmkl_sequential -lmkl_core
 id        : emory

 Nodes     nprocs
 node20       3
 Number of processes for MPI-2 version of Molpro:   nprocs(total)=    4   nprocs(compute)=    3   nprocs(helper)=    1
 ga_uses_ma=false, calling ma_init with nominal heap.
 GA-space will be limited to   8.0 MW (determined by -G option)

 Using customized tuning parameters: mindgm=7; mindgv=32; mindgc=1; mindgr=1; noblas=0; mincuda=1000; minvec=7
 default implementation of scratch files=sf  

 ***,co2h2o
 memory,100,m
 basis avtz
 geomtype = xyz
 geometry = {
 6
       0.00000000
 O     0.02747900    1.16001200    0.00000000
 O    -0.00936500   -1.16396300    0.00000000
 O    19.47521369   -0.08009572    0.00000000
 H    19.86430869    0.36117828    0.75746400
 H    19.86430869    0.36117828   -0.75746400
 C     0.02536600   -0.00312200    0.00000000
 }
 hf
 ccsd(t)-f12
 ---

 Variables initialized (665), CPU time= 0.01 sec
 Commands  initialized (462), CPU time= 0.00 sec, 486 directives.
 Default parameters read. Elapsed time= 0.04 sec

 Checking input...
 Passed
1


                                         ***  PROGRAM SYSTEM MOLPRO  ***
                         Copyright, University College Cardiff Consultants Limited, 2008

                                    Version 2010.1 linked 9 Dec 2014 15:06:28 


 **********************************************************************************************************************************
 LABEL *   co2h2o                                                                        
 Linux-2.6.32-504.el6.x86_64/node20(x86_64) 64 bit mpp version                           DATE: 14-Dec-16          TIME: 23:46:12  
 **********************************************************************************************************************************

 Patch level:      19
 **********************************************************************************************************************************

 Variable memory set to  100000000 words,  buffer space   230000 words

 SETTING BASIS          =    AVTZ
 SETTING GEOMTYPE       =    XYZ

Geometry recognized as XYZ



 Recomputing integrals since basis changed


 Using spherical harmonics

 Library entry O      S aug-cc-pVTZ          selected for orbital group  1
 Library entry O      P aug-cc-pVTZ          selected for orbital group  1
 Library entry O      D aug-cc-pVTZ          selected for orbital group  1
 Library entry O      F aug-cc-pVTZ          selected for orbital group  1
 Library entry H      S aug-cc-pVTZ          selected for orbital group  2
 Library entry H      P aug-cc-pVTZ          selected for orbital group  2
 Library entry H      D aug-cc-pVTZ          selected for orbital group  2
 Library entry C      S aug-cc-pVTZ          selected for orbital group  3
 Library entry C      P aug-cc-pVTZ          selected for orbital group  3
 Library entry C      D aug-cc-pVTZ          selected for orbital group  3
 Library entry C      F aug-cc-pVTZ          selected for orbital group  3

1PROGRAM * SEWARD (Integral evaluation for generally contracted gaussian basis sets)     Author: Roland Lindh, 1990

 Geometry written to block  1 of record 700


 Point group  Cs  



 ATOMIC COORDINATES

 NR  ATOM    CHARGE       X              Y              Z

   1  O       8.00    0.051927784    2.192104989    0.000000000
   2  O       8.00   -0.017697285   -2.199571297    0.000000000
   3  O       8.00   36.802820225   -0.151358975    0.000000000
   4  H       1.00   37.538103214    0.682528034    1.431399514
   5  H       1.00   37.538103214    0.682528034   -1.431399514
   6  C       6.00    0.047934793   -0.005899725    0.000000000

 Bond lengths in Bohr (Angstrom)

 1-6  2.198008341  2-6  2.194653170  3-4  1.812432947  3-5  1.812432947
     (1.163135919)     (1.161360439)     (0.959098208)     (0.959098208)

 Bond angles

  1-6-2  178.39037465   4-3-5  104.32746287

 NUCLEAR CHARGE:                   32
 NUMBER OF PRIMITIVE AOS:         322
 NUMBER OF SYMMETRY AOS:          282
 NUMBER OF CONTRACTIONS:          230   ( 143A'  +  87A"  )
 NUMBER OF CORE ORBITALS:           4   (   4A'  +   0A"  )
 NUMBER OF VALENCE ORBITALS:       18   (  13A'  +   5A"  )


 NUCLEAR REPULSION ENERGY   73.40748658


 Eigenvalues of metric

         1 0.349E-03 0.386E-03 0.420E-03 0.903E-03 0.922E-03 0.175E-02 0.186E-02 0.317E-02
         2 0.395E-03 0.167E-02 0.318E-02 0.348E-02 0.509E-02 0.622E-02 0.100E-01 0.125E-01


 Contracted 2-electron integrals neglected if value below      1.0D-11
 AO integral compression algorithm  1   Integral accuracy      1.0D-11

     226.492 MB (compressed) written to integral file ( 44.6%)

     Node minimum: 61.604 MB, node maximum: 83.886 MB


 NUMBER OF SORTED TWO-ELECTRON INTEGRALS:   59530350.     BUFFER LENGTH:  32768
 NUMBER OF SEGMENTS:   4  SEGMENT LENGTH:   15999984      RECORD LENGTH: 524288

 Memory used in sort:      16.56 MW

 SORT1 READ    63492204. AND WROTE    15461942. INTEGRALS IN     46 RECORDS. CPU TIME:     0.90 SEC, REAL TIME:     1.05 SEC
 SORT2 READ    46177733. AND WROTE   178576926. INTEGRALS IN    927 RECORDS. CPU TIME:     0.55 SEC, REAL TIME:     0.70 SEC

 Node minimum:    59520934.  Node maximum:    59530350. integrals

 OPERATOR DM      FOR CENTER  0  COORDINATES:    0.000000    0.000000    0.000000


 **********************************************************************************************************************************
 DATASETS  * FILE   NREC   LENGTH (MB)   RECORD NAMES
              1      18        3.71       500      610      700      900      950      970     1000      129      960     1100   
                                          VAR    BASINP    GEOM    SYMINP    ZMAT    AOBASIS   BASIS     P2S    ABASIS      S 
                                         1400     1410     1200     1210     1080     1600     1650     1700   
                                           T        V       H0       H01     AOSYM     SMH    MOLCAS    OPER   

 PROGRAMS   *        TOTAL       INT
 CPU TIMES  *         3.30      3.22
 REAL TIME  *         3.77 SEC
 DISK USED  *       791.44 MB      
 GA USED    *         0.00 MB       (max)       0.00 MB       (current)
 **********************************************************************************************************************************

1PROGRAM * RHF-SCF (CLOSED SHELL)       Authors: W. Meyer, H.-J. Werner


 NUMBER OF ELECTRONS:      16+   16-
 CONVERGENCE THRESHOLDS:    1.00E-05 (Density)    1.00E-07 (Energy)
 MAX. NUMBER OF ITERATIONS:       60
 INTERPOLATION TYPE:            DIIS
 INTERPOLATION STEPS:              2 (START)      1 (STEP)
 LEVEL SHIFTS:                  0.00 (CLOSED)  0.00 (OPEN) 



 Orbital guess generated from atomic densities. Full valence occupancy:   17   5

 Molecular orbital dump at record        2100.2

 Initial alpha occupancy:  13   3
 Initial beta  occupancy:  13   3
 Wave function symmetry:    1

 ITERATION    DDIFF          GRAD             ENERGY        2-EL.EN.            DIPOLE MOMENTS         DIIS
    1      0.000D+00      0.000D+00      -263.66003191    342.249035    0.79962    0.84407    0.00000    0
    2      0.000D+00      0.643D-02      -263.72538357    337.716330    0.45302    0.50054    0.00000    1
    3      0.103D-01      0.437D-02      -263.76882578    340.272324    0.54112    0.58069    0.00000    2
    4      0.424D-02      0.410D-03      -263.76932120    340.058402    0.54320    0.58500    0.00000    3
    5      0.493D-03      0.119D-03      -263.76937928    340.061917    0.53953    0.58021    0.00000    4
    6      0.185D-03      0.482D-04      -263.76938646    340.076113    0.53996    0.58118    0.00000    5
    7      0.614D-04      0.119D-04      -263.76938719    340.067846    0.53966    0.58065    0.00000    6
    8      0.201D-04      0.265D-05      -263.76938724    340.069117    0.53967    0.58079    0.00000    7
    9      0.548D-05      0.106D-05      -263.76938724    340.068960    0.53965    0.58064    0.00000    0

 Final occupancy:  13   3

 !RHF STATE 1.1 Energy               -263.769387243307
 Nuclear energy                        73.40748658
 One-electron energy                 -507.21135357
 Two-electron energy                  170.03447975
 Virial quotient                       -1.00183193
 !RHF STATE 1.1 Dipole moment           0.53965079     0.58064145     0.00000000
 Dipole moment /Debye                   1.37156566     1.47574671     0.00000000

 Orbital energies:

         1.1          2.1          3.1          4.1          5.1          6.1          7.1          8.1          9.1         10.1
    -20.653368   -20.652801   -20.567661   -11.461880    -1.530710    -1.477597    -1.352832    -0.800959    -0.743181    -0.714765

        11.1         12.1         13.1         14.1         15.1
     -0.585013    -0.544401    -0.510316     0.029358     0.047685

         1.2          2.2          3.2          4.2          5.2
     -0.716521    -0.714772    -0.544419     0.047640     0.073247


 **********************************************************************************************************************************
 DATASETS  * FILE   NREC   LENGTH (MB)   RECORD NAMES
              1      18        3.72       500      610      700      900      950      970     1000      129      960     1100   
                                          VAR    BASINP    GEOM    SYMINP    ZMAT    AOBASIS   BASIS     P2S    ABASIS      S 
                                         1400     1410     1200     1210     1080     1600     1650     1700   
                                           T        V       H0       H01     AOSYM     SMH    MOLCAS    OPER   

              2       3        0.94       700     1000     2100   
                                         GEOM     BASIS     RHF  

 PROGRAMS   *        TOTAL        HF       INT
 CPU TIMES  *         5.80      2.50      3.22
 REAL TIME  *         6.41 SEC
 DISK USED  *       815.27 MB      
 SF USED    *         0.11 MB      
 GA USED    *         0.00 MB       (max)       0.00 MB       (current)
 **********************************************************************************************************************************


1PROGRAM * CCSD (Closed-shell coupled cluster)     Authors: C. Hampel, H.-J. Werner, 1991, M. Deegan, P.J. Knowles, 1992

                                  CCSD-F12 implementation by  H.-J. Werner, 2007

                   Density fitting integral evaluation by F.R. Manby, 2003,2007, G. Knizia, 2010

 Basis set CC-PVTZ/JKFIT generated.      Number of basis functions:   376 
 Basis set AUG-CC-PVTZ/MP2FIT generated. Number of basis functions:   516 

 Convergence thresholds:  THRVAR = 1.00D-08  THRDEN = 1.00D-06

 CCSD(T)     terms to be evaluated (factor= 1.000)


 Number of core orbitals:           4 (   4   0 )
 Number of closed-shell orbitals:  12 (   9   3 )
 Number of external orbitals:     214 ( 130  84 )

 Molecular orbitals read from record     2100.2  Type=RHF/CANONICAL (state 1.1)

 MP2-F12 correlation treatment (H.-J. Werner, 2006)
 --------------------------------------------------

 Using MP2-F12 with ansatz 3C(FIX)

 Using projected zeroth-order Hamiltonian (+Z)

 FOCKRIB=T FOCKRIC=T FOCKRIP=T CABSP=T CABSA=T CABSK=T CABSF=T GBC=F EBC=F DMAT=T NOFIK=T NOPAO=1 SOLVE=-1  USEPAO=0
 EXCH_A= T EXCH_B= F EXCH_C= F EXCH_P= F
 
 Geminal basis:    OPTFULL  GEM_TYPE=SLATER  BETA=1.0  NGEM=6

 Optimizing Gaussian exponents for each gem_beta

 Geminal optimization for beta= 1.0000
 Weight function:   m=0, omega= 1.4646

 Augmented Hessian optimization of geminal fit. Trust ratio= 0.40000
 Convergence reached after   2 iterations. Final gradient= 8.24D-16, Step= 4.32D-06, Delta= 1.28D-09
 
 Alpha:                 0.19532     0.81920     2.85917     9.50073    35.69989   197.79328
 Coeff:                 0.27070     0.30552     0.18297     0.10986     0.06810     0.04224
 

 Symmetry turned off. Reference energy:       -263.769387243307

 All pairs explicitly correlated. Number of r12-pairs:           78
 
 AO(A)-basis ORBITAL           loaded. Number of functions:     230
 RI(R)-basis CC-PVTZ/JKFIT     loaded. Number of functions:     376
 DF-basis CC-PVTZ/JKFIT        loaded. Number of functions:     376

 Screening thresholds:   THRAO=  1.00D-10  THRMO=  1.00D-09  THRPROD=  1.00D-09
                         THRSW=  1.00D-05  THROV=  1.00D-12  THRF12=   1.00D-08

 CPU time for Fock operators                      0.80 sec
 
 Construction of ABS:
 Smallest eigenvalue of S          2.57E-04  (threshold= 1.00E-08)
 Ratio eigmin/eigmax               1.83E-06  (threshold= 1.00E-09)
 Smallest eigenvalue of S kept     2.57E-04  (threshold= 2.57E-04, 0 functions deleted, 376 kept)
 
 Construction of CABS:
 Smallest eigenvalue of S          2.30E-08  (threshold= 1.00E-08)
 Ratio eigmin/eigmax               2.30E-08  (threshold= 1.00E-09)
 Smallest eigenvalue of S kept     2.30E-08  (threshold= 2.30E-08, 0 functions deleted, 376 kept)
 
 CPU time for CABS singles                        0.16 sec

 CABS-singles contribution of  -0.01592230 patched into reference energy.
 New reference energy        -263.78530954
 
 AO(A)-basis ORBITAL           loaded. Number of functions:     230
 RI(R)-basis CC-PVTZ/JKFIT     loaded. Number of functions:     376
 DF-basis AUG-CC-PVTZ/MP2FIT   loaded. Number of functions:     516

 Screening thresholds:   THRAO=  1.00D-10  THRMO=  1.00D-09  THRPROD=  1.00D-09
                         THRSW=  1.00D-05  THROV=  1.00D-12  THRF12=   1.00D-08

 CPU time for 3-index integral evaluation         1.39 sec
 CPU time for first  half transformation          0.09 sec ( 9110.9 MFLOP/sec)
 CPU time for sorting                             0.07 sec
 CPU time for fitting                             0.05 sec (27861.0 MFLOP/sec)
 CPU time for tilde quantities                    0.05 sec (36977.6 MFLOP/sec)
 CPU time for assembly                            0.76 sec (30705.3 MFLOP/sec)
 CPU time for tranop_f12                          0.90 sec (33419.6 MFLOP/sec)
 CPU time for f12 integrals (total)               5.25 sec
 F12-matrices built in  3 passes.
 F12-matrices built in  3 passes.
 F12-matrices built in  3 passes.
 F12-matrices built in  3 passes.
 FC-matrix built in  3 passes.
 CPU time for f12 matrices (total)                0.49 sec

 Diagonal F12 approximation with fixed coefficients:  TSING= 0.500,  TTRIP= 0.250 (scaled by -1/beta)

 DF-MP2-F12 energy corrections:
 ------------------------------
 Approx.                                    Singlet             Triplet             Total
 DF-MP2-F12/3*C(DX,FIX)                -0.097445583257     -0.016932794778     -0.114378378034
 DF-MP2-F12/3*C(FIX)                   -0.079860758529     -0.013395142992     -0.093255901521
 DF-MP2-F12/3C(FIX)                    -0.080222238498     -0.013418597970     -0.093640836468

 DF-MP2-F12 correlation energies:
 --------------------------------
 Approx.                                    Singlet             Triplet             Ecorr            Total Energy
 DF-MP2                                -0.537790407128     -0.343111400542     -0.880901807670   -264.666211348857
 DF-MP2-F12/3*C(DX,FIX)                -0.635235990385     -0.360044195319     -0.995280185704   -264.780589726891
 DF-MP2-F12/3*C(FIX)                   -0.617651165657     -0.356506543533     -0.974157709190   -264.759467250377
 DF-MP2-F12/3C(FIX)                    -0.618012645626     -0.356529998512     -0.974542644138   -264.759852185325

 SCS-DF-MP2 energies (F_SING= 1.20000  F_TRIP= 0.62222  F_PARALLEL= 0.33333):
 ----------------------------------------------------------------------------
 SCS-DF-MP2                            -0.858840026668   -264.644149567856
 SCS-DF-MP2-F12/3*C(DX,FIX)            -0.986310687771   -264.771620228959
 SCS-DF-MP2-F12/3*C(FIX)               -0.963007692542   -264.748317233730
 SCS-DF-MP2-F12/3C(FIX)                -0.963456062714   -264.748765603901

 Symmetry restored.
 Symmetry transformation completed.

 Number of N-1 electron functions:              12
 Number of N-2 electron functions:              78
 Number of singly external CSFs:              1422
 Number of doubly external CSFs:           1668984
 Total number of CSFs:                     1670407

 Pair and operator lists are different

 Length of J-op  integral file:             466.33 MB
 Length of K-op  integral file:             525.76 MB
 Length of 3-ext integral record:             0.00 MB

 Memory could be reduced to 76.19 Mwords without degradation in triples

 Integral transformation finished. Total CPU:   3.55 sec, npass=  1  Memory used:  26.50 MW

 Reference energy:                   -263.78530954

 Adding F12 terms to K(Cij), methodcc=6,  factor=1.0

 ITER.      SQ.NORM     CORR.ENERGY   TOTAL ENERGY   ENERGY CHANGE        DEN1      VAR(S)    VAR(P)  DIIS     TIME
   1      1.20220637    -0.86283951  -264.64814905     0.01807872     0.04672845  0.72D-02  0.56D-02  1  1    12.78
   2      1.21652856    -0.85860985  -264.64391939     0.00422967    -0.02016366  0.86D-04  0.59D-03  2  2    14.99
   3      1.22189453    -0.85870616  -264.64401570    -0.00009631    -0.00236638  0.13D-03  0.32D-04  3  3    17.23
   4      1.22469889    -0.85857818  -264.64388772     0.00012798    -0.00141239  0.76D-05  0.41D-05  4  4    19.47
   5      1.22572975    -0.85854049  -264.64385003     0.00003769    -0.00036669  0.56D-06  0.29D-06  5  5    21.71
   6      1.22589201    -0.85851362  -264.64382316     0.00002686    -0.00000806  0.40D-07  0.24D-07  6  6    24.00
   7      1.22592139    -0.85851119  -264.64382073     0.00000243    -0.00000622  0.26D-08  0.40D-08  6  4    26.30
   8      1.22592171    -0.85851070  -264.64382024     0.00000049     0.00000194  0.39D-09  0.27D-09  6  1    28.54
   9      1.22592232    -0.85851077  -264.64382031    -0.00000007     0.00000056  0.26D-10  0.21D-10  6  2    31.74

 Norm of t1 vector:      0.10599828      S-energy:     0.00000002      T1 diagnostic:  0.01529953
                                                                       D1 diagnostic:  0.04494936

 Adding energy correction from Wij-K(Fij), methodcc=6  factor=1.0
 
  CCSD correlation energy              -0.858510767825
  MP2-F12 correction (uncoupled)       -0.092482538552
  C*T doubles correction               -0.001476396495
  f12b correction                       0.015406947265


 Total CPU time for triples:     69.48 sec


 RESULTS
 =======

  Reference energy                   -263.769387243307
  F12 singles correction               -0.015922297881

 F12 singles corrections added to reference energy

  New reference energy               -263.785309541188

  F12a singlet correction              -0.080421905414
  F12a triplet correction              -0.013537029633
  F12a total correction                -0.093958935047

 F12a corrections for ansatz F12/3C(FIX) added to CCSD energy
 
  CCSD-F12a singlet pair energy        -0.641955394743
  CCSD-F12a triplet pair energy        -0.310514327136
  CCSD-F12a correlation energy         -0.952469702872

  Triples (T) contribution             -0.037651204188
  Total correlation energy             -0.990120907060

  CCSD-F12a total energy             -264.737779244060
  CCSD[T]-F12a energy                -264.777975900626
  CCSD-T-F12a energy                 -264.774492086190
 !CCSD(T)-F12a total energy          -264.775430448248

 F12b corrections for ansatz F12/3C(FIX) added to CCSD(T)-F12a energy

  CCSD-F12b singlet pair energy        -0.627771661449
  CCSD-F12b triplet pair energy        -0.309291113166
  CCSD-F12b correlation energy         -0.937062755608

  Triples (T) contribution             -0.037651204188
  Total correlation energy             -0.974713959795

  CCSD-F12b total energy             -264.722372296795
  CCSD[T]-F12b energy                -264.762568953362
  CCSD-T-F12b energy                 -264.759085138925
 !CCSD(T)-F12b total energy          -264.760023500983

 Timing summary (sec):

 STEP                 CPU(USER)    SYS     CPU(TOT)    WALL
 Transformation          3.58      0.49      4.07      4.06
 CCSD iterations        21.07      1.33     22.40     22.42
 Triples                69.48      1.51     70.99     70.98
 MP2-F12                 7.10      1.05      8.15      8.16
 F12b energy             1.37      0.02      1.39      1.38

 Program statistics:

 Available memory in ccsd:                99998934
 Min. memory needed in ccsd:               4419579
 Max. memory used in ccsd:                 5922321
 Max. memory used in cckext:               6231049 (10 integral passes)



 **********************************************************************************************************************************
 DATASETS  * FILE   NREC   LENGTH (MB)   RECORD NAMES
              1      20      268.24       500      610      700      900      950      970     1000      129      960     1100   
                                          VAR    BASINP    GEOM    SYMINP    ZMAT    AOBASIS   BASIS     P2S    ABASIS      S 
                                         1400     1410     1200     1210     1080     1600     1650     1700      960(1)  1380   
                                           T        V       H0       H01     AOSYM     SMH    MOLCAS    OPER    ABASIS    JKOP   

              2       5        1.51       700     1000     2100     7360     7350   
                                         GEOM     BASIS     RHF    F12ABS    EF12   

 PROGRAMS   *        TOTAL   CCSD(T)        HF       INT
 CPU TIMES  *       108.53    102.73      2.50      3.22
 REAL TIME  *       113.67 SEC
 DISK USED  *         1.25 GB      
 SF USED    *         1.52 GB      
 GA USED    *         2.40 MB       (max)       0.00 MB       (current)
 **********************************************************************************************************************************

     CCSD(T)-F12        HF-SCF  
   -264.76002350   -263.76938724
 **********************************************************************************************************************************
 Variable memory released
