
 Primary working directories    : /scratch/kee
 Secondary working directories  : /scratch/kee
 Wavefunction directory         : /home/kee/wfu/
 Main file repository           : /scratch/kee/

 ARCHNAME  : Linux/x86_64
 FC        : /opt/intel/composer_xe_2015.0.090/bin/intel64/ifort
 FCVERSION : 15.0.0
 BLASLIB   : -L/opt/intel/mkl/lib/intel64 -lmkl_intel_ilp64 -lmkl_sequential -lmkl_core
 id        : emory

 Nodes     nprocs
 node18       3
 Number of processes for MPI-2 version of Molpro:   nprocs(total)=    4   nprocs(compute)=    3   nprocs(helper)=    1
 ga_uses_ma=false, calling ma_init with nominal heap.
 GA-space will be limited to   8.0 MW (determined by -G option)

 Using customized tuning parameters: mindgm=7; mindgv=32; mindgc=1; mindgr=1; noblas=0; mincuda=1000; minvec=7
 default implementation of scratch files=sf  

 ***,co2h2o
 memory,100,m
 basis avtz
 geomtype = xyz
 geometry = {
 6
       0.00000777
 O    10.97257393   -1.10347931    0.00000000
 O    11.76744404    1.08065151   -0.00000000
 O     8.29356282    0.00000000    0.00000000
 H     7.54556774    0.58340495    0.10287003
 H     9.04598802    0.58686026    0.10347930
 C    11.34356282    0.00000000    0.00000000
 }
 hf
 ccsd(t)-f12
 ---

 Variables initialized (665), CPU time= 0.00 sec
 Commands  initialized (462), CPU time= 0.01 sec, 486 directives.
 Default parameters read. Elapsed time= 0.04 sec

 Checking input...
 Passed
1


                                         ***  PROGRAM SYSTEM MOLPRO  ***
                         Copyright, University College Cardiff Consultants Limited, 2008

                                    Version 2010.1 linked 9 Dec 2014 15:06:28 


 **********************************************************************************************************************************
 LABEL *   co2h2o                                                                        
 Linux-2.6.32-504.el6.x86_64/node18(x86_64) 64 bit mpp version                           DATE: 18-Jan-17          TIME: 21:38:14  
 **********************************************************************************************************************************

 Patch level:      19
 **********************************************************************************************************************************

 Variable memory set to  100000000 words,  buffer space   230000 words

 SETTING BASIS          =    AVTZ
 SETTING GEOMTYPE       =    XYZ

Geometry recognized as XYZ



 Recomputing integrals since basis changed


 Using spherical harmonics

 Library entry O      S aug-cc-pVTZ          selected for orbital group  1
 Library entry O      P aug-cc-pVTZ          selected for orbital group  1
 Library entry O      D aug-cc-pVTZ          selected for orbital group  1
 Library entry O      F aug-cc-pVTZ          selected for orbital group  1
 Library entry H      S aug-cc-pVTZ          selected for orbital group  2
 Library entry H      P aug-cc-pVTZ          selected for orbital group  2
 Library entry H      D aug-cc-pVTZ          selected for orbital group  2
 Library entry C      S aug-cc-pVTZ          selected for orbital group  3
 Library entry C      P aug-cc-pVTZ          selected for orbital group  3
 Library entry C      D aug-cc-pVTZ          selected for orbital group  3
 Library entry C      F aug-cc-pVTZ          selected for orbital group  3

1PROGRAM * SEWARD (Integral evaluation for generally contracted gaussian basis sets)     Author: Roland Lindh, 1990

 Geometry written to block  1 of record 700


 Point group  C1  



 ATOMIC COORDINATES

 NR  ATOM    CHARGE       X              Y              Z

   1  O       8.00   20.735159684   -2.085273688    0.000000000
   2  O       8.00   22.237246502    2.042135397    0.000000000
   3  O       8.00   15.672562384    0.000000000    0.000000000
   4  H       1.00   14.259056535    1.102475579    0.194396184
   5  H       1.00   17.094439946    1.109005169    0.195547537
   6  C       6.00   21.436227084    0.000000000    0.000000000

 Bond lengths in Bohr (Angstrom)

 1-6  2.199968602  2-6  2.193615529  3-4  1.803119814  3-5  1.813799081
     (1.164173245)     (1.160811343)     (0.954169911)     (0.959821135)

 Bond angles

  1-6-2  177.16520951   4-3-5  103.24222917

 NUCLEAR CHARGE:                   32
 NUMBER OF PRIMITIVE AOS:         322
 NUMBER OF SYMMETRY AOS:          282
 NUMBER OF CONTRACTIONS:          230   ( 230A   )
 NUMBER OF CORE ORBITALS:           4   (   4A   )
 NUMBER OF VALENCE ORBITALS:       18   (  18A   )


 NUCLEAR REPULSION ENERGY  104.24457121


 Eigenvalues of metric

         1 0.185E-03 0.243E-03 0.328E-03 0.333E-03 0.550E-03 0.785E-03 0.853E-03 0.948E-03


 Contracted 2-electron integrals neglected if value below      1.0D-11
 AO integral compression algorithm  1   Integral accuracy      1.0D-11

     1127.481 MB (compressed) written to integral file ( 34.3%)

     Node minimum: 355.992 MB, node maximum: 397.410 MB


 NUMBER OF SORTED TWO-ELECTRON INTEGRALS:  117629820.     BUFFER LENGTH:  32768
 NUMBER OF SEGMENTS:   8  SEGMENT LENGTH:   15997437      RECORD LENGTH: 524288

 Memory used in sort:      16.55 MW

 SORT1 READ   410697961. AND WROTE    84179525. INTEGRALS IN    246 RECORDS. CPU TIME:     5.09 SEC, REAL TIME:     5.88 SEC
 SORT2 READ   253374631. AND WROTE   352862895. INTEGRALS IN   4548 RECORDS. CPU TIME:     1.58 SEC, REAL TIME:     2.21 SEC

 Node minimum:   117612110.  Node maximum:   117629820. integrals

 OPERATOR DM      FOR CENTER  0  COORDINATES:    0.000000    0.000000    0.000000


 **********************************************************************************************************************************
 DATASETS  * FILE   NREC   LENGTH (MB)   RECORD NAMES
              1      18        4.62       500      610      700      900      950      970     1000      129      960     1100   
                                          VAR    BASINP    GEOM    SYMINP    ZMAT    AOBASIS   BASIS     P2S    ABASIS      S 
                                         1400     1410     1200     1210     1080     1600     1650     1700   
                                           T        V       H0       H01     AOSYM     SMH    MOLCAS    OPER   

 PROGRAMS   *        TOTAL       INT
 CPU TIMES  *        11.56     11.49
 REAL TIME  *        13.30 SEC
 DISK USED  *         4.12 GB      
 GA USED    *         0.00 MB       (max)       0.00 MB       (current)
 **********************************************************************************************************************************

1PROGRAM * RHF-SCF (CLOSED SHELL)       Authors: W. Meyer, H.-J. Werner


 NUMBER OF ELECTRONS:      16+   16-    SPACE SYMMETRY=1    SPIN SYMMETRY=Singlet 
 CONVERGENCE THRESHOLDS:    1.00E-05 (Density)    1.00E-07 (Energy)
 MAX. NUMBER OF ITERATIONS:       60
 INTERPOLATION TYPE:            DIIS
 INTERPOLATION STEPS:              2 (START)      1 (STEP)
 LEVEL SHIFTS:                  0.00 (CLOSED)  0.00 (OPEN) 



 Orbital guess generated from atomic densities. Full valence occupancy:   22

 Molecular orbital dump at record        2100.2

 ITERATION    DDIFF          GRAD             ENERGY        2-EL.EN.            DIPOLE MOMENTS         DIIS
    1      0.000D+00      0.000D+00      -263.64758384    403.359401   -0.04685    1.15959    0.19712    0
    2      0.000D+00      0.477D-02      -263.71495997    399.171904   -0.08397    0.50346    0.10384    1
    3      0.765D-02      0.328D-02      -263.76129662    401.636394   -0.06162    0.71540    0.12772    2
    4      0.318D-02      0.315D-03      -263.76182826    401.416672   -0.06933    0.69728    0.12900    3
    5      0.376D-03      0.101D-03      -263.76189650    401.421361   -0.06526    0.70723    0.12805    4
    6      0.147D-03      0.450D-04      -263.76190752    401.435350   -0.06816    0.70005    0.12811    5
    7      0.516D-04      0.122D-04      -263.76190870    401.430808   -0.06760    0.70200    0.12810    6
    8      0.187D-04      0.429D-05      -263.76190882    401.429241   -0.06790    0.70126    0.12808    7
    9      0.556D-05      0.124D-05      -263.76190884    401.430211   -0.06790    0.70140    0.12808    8
   10      0.231D-05      0.416D-06      -263.76190884    401.430002   -0.06791    0.70136    0.12808    0

 Final occupancy:  16

 !RHF STATE 1.1 Energy               -263.761908841766
 Nuclear energy                       104.24457121
 One-electron energy                 -568.72148101
 Two-electron energy                  200.71500097
 Virial quotient                       -1.00166201
 !RHF STATE 1.1 Dipole moment          -0.06791161     0.70136099     0.12807579
 Dipole moment /Debye                  -0.17260279     1.78256507     0.32551488

 Orbital energies:

         1.1          2.1          3.1          4.1          5.1          6.1          7.1          8.1          9.1         10.1
    -20.658748   -20.653358   -20.575361   -11.463929    -1.534409    -1.480051    -1.363086    -0.803783    -0.744844    -0.740618

        11.1         12.1         13.1         14.1         15.1         16.1         17.1         18.1
     -0.717776    -0.703788    -0.595580    -0.546791    -0.545392    -0.518225     0.027915     0.046320


 **********************************************************************************************************************************
 DATASETS  * FILE   NREC   LENGTH (MB)   RECORD NAMES
              1      18        4.62       500      610      700      900      950      970     1000      129      960     1100   
                                          VAR    BASINP    GEOM    SYMINP    ZMAT    AOBASIS   BASIS     P2S    ABASIS      S 
                                         1400     1410     1200     1210     1080     1600     1650     1700   
                                           T        V       H0       H01     AOSYM     SMH    MOLCAS    OPER   

              2       3        1.44       700     1000     2100   
                                         GEOM     BASIS     RHF  

 PROGRAMS   *        TOTAL        HF       INT
 CPU TIMES  *        24.47     12.91     11.49
 REAL TIME  *        26.78 SEC
 DISK USED  *         4.16 GB      
 SF USED    *         0.21 MB      
 GA USED    *         0.00 MB       (max)       0.00 MB       (current)
 **********************************************************************************************************************************


1PROGRAM * CCSD (Closed-shell coupled cluster)     Authors: C. Hampel, H.-J. Werner, 1991, M. Deegan, P.J. Knowles, 1992

                                  CCSD-F12 implementation by  H.-J. Werner, 2007

                   Density fitting integral evaluation by F.R. Manby, 2003,2007, G. Knizia, 2010

 Basis set CC-PVTZ/JKFIT generated.      Number of basis functions:   376 
 Basis set AUG-CC-PVTZ/MP2FIT generated. Number of basis functions:   516 

 Convergence thresholds:  THRVAR = 1.00D-08  THRDEN = 1.00D-06

 CCSD(T)     terms to be evaluated (factor= 1.000)


 Number of core orbitals:           4 (   4 )
 Number of closed-shell orbitals:  12 (  12 )
 Number of external orbitals:     214 ( 214 )

 Molecular orbitals read from record     2100.2  Type=RHF/CANONICAL (state 1.1)

 MP2-F12 correlation treatment (H.-J. Werner, 2006)
 --------------------------------------------------

 Using MP2-F12 with ansatz 3C(FIX)

 Using projected zeroth-order Hamiltonian (+Z)

 FOCKRIB=T FOCKRIC=T FOCKRIP=T CABSP=T CABSA=T CABSK=T CABSF=T GBC=F EBC=F DMAT=T NOFIK=T NOPAO=1 SOLVE=-1  USEPAO=0
 EXCH_A= T EXCH_B= F EXCH_C= F EXCH_P= F
 
 Geminal basis:    OPTFULL  GEM_TYPE=SLATER  BETA=1.0  NGEM=6

 Optimizing Gaussian exponents for each gem_beta

 Geminal optimization for beta= 1.0000
 Weight function:   m=0, omega= 1.4646

 Augmented Hessian optimization of geminal fit. Trust ratio= 0.40000
 Convergence reached after   2 iterations. Final gradient= 8.24D-16, Step= 4.32D-06, Delta= 1.28D-09
 
 Alpha:                 0.19532     0.81920     2.85917     9.50073    35.69989   197.79328
 Coeff:                 0.27070     0.30552     0.18297     0.10986     0.06810     0.04224
 

 All pairs explicitly correlated. Number of r12-pairs:           78
 
 AO(A)-basis ORBITAL           loaded. Number of functions:     230
 RI(R)-basis CC-PVTZ/JKFIT     loaded. Number of functions:     376
 DF-basis CC-PVTZ/JKFIT        loaded. Number of functions:     376

 Screening thresholds:   THRAO=  1.00D-10  THRMO=  1.00D-09  THRPROD=  1.00D-09
                         THRSW=  1.00D-05  THROV=  1.00D-12  THRF12=   1.00D-08

 CPU time for Fock operators                      0.95 sec
 
 Construction of ABS:
 Smallest eigenvalue of S          2.37E-04  (threshold= 1.00E-08)
 Ratio eigmin/eigmax               1.69E-06  (threshold= 1.00E-09)
 Smallest eigenvalue of S kept     2.37E-04  (threshold= 2.37E-04, 0 functions deleted, 376 kept)
 
 Construction of CABS:
 Smallest eigenvalue of S          2.21E-08  (threshold= 1.00E-08)
 Ratio eigmin/eigmax               2.21E-08  (threshold= 1.00E-09)
 Smallest eigenvalue of S kept     2.21E-08  (threshold= 2.21E-08, 0 functions deleted, 376 kept)
 
 CPU time for CABS singles                        0.16 sec

 CABS-singles contribution of  -0.01587637 patched into reference energy.
 New reference energy        -263.77778521
 
 AO(A)-basis ORBITAL           loaded. Number of functions:     230
 RI(R)-basis CC-PVTZ/JKFIT     loaded. Number of functions:     376
 DF-basis AUG-CC-PVTZ/MP2FIT   loaded. Number of functions:     516

 Screening thresholds:   THRAO=  1.00D-10  THRMO=  1.00D-09  THRPROD=  1.00D-09
                         THRSW=  1.00D-05  THROV=  1.00D-12  THRF12=   1.00D-08

 CPU time for 3-index integral evaluation         2.99 sec
 CPU time for first  half transformation          0.25 sec (11840.3 MFLOP/sec)
 CPU time for second half transformation          0.02 sec ( 5422.8 MFLOP/sec)
 CPU time for sorting                             0.17 sec
 CPU time for fitting                             0.06 sec (23217.5 MFLOP/sec)
 CPU time for tilde quantities                    0.05 sec (36977.6 MFLOP/sec)
 CPU time for assembly                            0.79 sec (29910.6 MFLOP/sec)
 CPU time for tranop_f12                          0.87 sec (34708.5 MFLOP/sec)
 CPU time for f12 integrals (total)               7.18 sec
 F12-matrices built in  3 passes.
 F12-matrices built in  3 passes.
 F12-matrices built in  3 passes.
 F12-matrices built in  3 passes.
 FC-matrix built in  3 passes.
 CPU time for f12 matrices (total)                0.52 sec

 Diagonal F12 approximation with fixed coefficients:  TSING= 0.500,  TTRIP= 0.250 (scaled by -1/beta)

 DF-MP2-F12 energy corrections:
 ------------------------------
 Approx.                                    Singlet             Triplet             Total
 DF-MP2-F12/3*C(DX,FIX)                -0.097191586466     -0.016958436978     -0.114150023443
 DF-MP2-F12/3*C(FIX)                   -0.079591212266     -0.013436851144     -0.093028063410
 DF-MP2-F12/3C(FIX)                    -0.079967040563     -0.013475995911     -0.093443036474

 DF-MP2-F12 correlation energies:
 --------------------------------
 Approx.                                    Singlet             Triplet             Ecorr            Total Energy
 DF-MP2                                -0.539482097281     -0.345740749273     -0.885222846554   -264.663008057279
 DF-MP2-F12/3*C(DX,FIX)                -0.636673683747     -0.362699186250     -0.999372869997   -264.777158080723
 DF-MP2-F12/3*C(FIX)                   -0.619073309547     -0.359177600417     -0.978250909964   -264.756036120690
 DF-MP2-F12/3C(FIX)                    -0.619449137844     -0.359216745184     -0.978665883028   -264.756451093753

 SCS-DF-MP2 energies (F_SING= 1.20000  F_TRIP= 0.62222  F_PARALLEL= 0.33333):
 ----------------------------------------------------------------------------
 SCS-DF-MP2                            -0.862506094063   -264.640291304788
 SCS-DF-MP2-F12/3*C(DX,FIX)            -0.989687914163   -264.767473124889
 SCS-DF-MP2-F12/3*C(FIX)               -0.966376256161   -264.744161466886
 SCS-DF-MP2-F12/3C(FIX)                -0.966851606860   -264.744636817586
 Symmetry transformation completed.

 Number of N-1 electron functions:              12
 Number of N-2 electron functions:              78
 Number of singly external CSFs:              2568
 Number of doubly external CSFs:           3298596
 Total number of CSFs:                     3301165

 Pair and operator lists are different

 Length of J-op  integral file:             474.22 MB
 Length of K-op  integral file:             572.29 MB
 Length of 3-ext integral record:             0.00 MB

 For full I/O caching in triples, increase memory by 50.81 Mwords to 151.09 Mwords.

 Integral transformation finished. Total CPU:  12.56 sec, npass=  1  Memory used:  87.46 MW

 Reference energy:                   -263.77778521

 Adding F12 terms to K(Cij), methodcc=6,  factor=1.0

 ITER.      SQ.NORM     CORR.ENERGY   TOTAL ENERGY   ENERGY CHANGE        DEN1      VAR(S)    VAR(P)  DIIS     TIME
   1      1.20329676    -0.86657949  -264.64436470     0.01865450     0.04777629  0.74D-02  0.57D-02  1  1    30.67
   2      1.21788242    -0.86223711  -264.64002232     0.00434238    -0.02051117  0.88D-04  0.60D-03  2  2    39.76
   3      1.22330088    -0.86233076  -264.64011597    -0.00009365    -0.00233437  0.13D-03  0.33D-04  3  3    48.62
   4      1.22618209    -0.86219470  -264.63997991     0.00013606    -0.00143434  0.80D-05  0.42D-05  4  4    57.54
   5      1.22725253    -0.86215500  -264.63994021     0.00003970    -0.00037667  0.61D-06  0.30D-06  5  5    66.74
   6      1.22742079    -0.86212771  -264.63991292     0.00002728    -0.00000688  0.47D-07  0.28D-07  6  6    76.13
   7      1.22745267    -0.86212485  -264.63991006     0.00000286    -0.00000639  0.41D-08  0.46D-08  6  2    85.69
   8      1.22745060    -0.86212507  -264.63991028    -0.00000022     0.00000392  0.83D-09  0.47D-09  6  3    95.20
   9      1.22745407    -0.86212462  -264.63990983     0.00000045    -0.00000131  0.72D-10  0.33D-10  6  1   104.85

 Norm of t1 vector:      0.10738331      S-energy:    -0.00000001      T1 diagnostic:  0.01549945
                                                                       D1 diagnostic:  0.04569328

 Adding energy correction from Wij-K(Fij), methodcc=6  factor=1.0
 
  CCSD correlation energy              -0.862124618749
  MP2-F12 correction (uncoupled)       -0.092271055115
  C*T doubles correction               -0.001480078211
  f12b correction                       0.015407143674


 Total CPU time for triples:    229.89 sec


 RESULTS
 =======

  Reference energy                   -263.761908841766
  F12 singles correction               -0.015876368960

 F12 singles corrections added to reference energy

  New reference energy               -263.777785210726

  F12a singlet correction              -0.080166781108
  F12a triplet correction              -0.013584352218
  F12a total correction                -0.093751133326

 F12a corrections for ansatz F12/3C(FIX) added to CCSD energy
 
  CCSD-F12a singlet pair energy        -0.643041950079
  CCSD-F12a triplet pair energy        -0.312833794264
  CCSD-F12a correlation energy         -0.955875752075

  Triples (T) contribution             -0.038338441372
  Total correlation energy             -0.994214193447

  CCSD-F12a total energy             -264.733660962801
  CCSD[T]-F12a energy                -264.774609884015
  CCSD-T-F12a energy                 -264.771040753945
 !CCSD(T)-F12a total energy          -264.771999404173

 F12b corrections for ansatz F12/3C(FIX) added to CCSD(T)-F12a energy

  CCSD-F12b singlet pair energy        -0.628865113937
  CCSD-F12b triplet pair energy        -0.311603486732
  CCSD-F12b correlation energy         -0.940468608401

  Triples (T) contribution             -0.038338441372
  Total correlation energy             -0.978807049773

  CCSD-F12b total energy             -264.718253819127
  CCSD[T]-F12b energy                -264.759202740341
  CCSD-T-F12b energy                 -264.755633610271
 !CCSD(T)-F12b total energy          -264.756592260499

 Timing summary (sec):

 STEP                 CPU(USER)    SYS     CPU(TOT)    WALL
 Transformation         12.66      1.05     13.71     13.71
 CCSD iterations        82.86      3.05     85.91     85.92
 Triples               229.89      2.57    232.46    232.44
 MP2-F12                 9.35      1.10     10.45     10.44
 F12b energy             7.77      0.09      7.86      7.85

 Program statistics:

 Available memory in ccsd:                99998934
 Min. memory needed in ccsd:               8644845
 Max. memory used in ccsd:                11598633
 Max. memory used in cckext:               8768967 (10 integral passes)



 **********************************************************************************************************************************
 DATASETS  * FILE   NREC   LENGTH (MB)   RECORD NAMES
              1      20      527.84       500      610      700      900      950      970     1000      129      960     1100   
                                          VAR    BASINP    GEOM    SYMINP    ZMAT    AOBASIS   BASIS     P2S    ABASIS      S 
                                         1400     1410     1200     1210     1080     1600     1650     1700      960(1)  1380   
                                           T        V       H0       H01     AOSYM     SMH    MOLCAS    OPER    ABASIS    JKOP   

              2       5        2.50       700     1000     2100     7360     7350   
                                         GEOM     BASIS     RHF    F12ABS    EF12   

 PROGRAMS   *        TOTAL   CCSD(T)        HF       INT
 CPU TIMES  *       367.20    342.73     12.91     11.49
 REAL TIME  *       377.49 SEC
 DISK USED  *         5.02 GB      
 SF USED    *         1.91 GB      
 GA USED    *         2.40 MB       (max)       0.00 MB       (current)
 **********************************************************************************************************************************

     CCSD(T)-F12        HF-SCF  
   -264.75659226   -263.76190884
 **********************************************************************************************************************************
 Variable memory released
