
 Primary working directories    : /scratch/kee
 Secondary working directories  : /scratch/kee
 Wavefunction directory         : /home/kee/wfu/
 Main file repository           : /scratch/kee/

 ARCHNAME  : Linux/x86_64
 FC        : /opt/intel/composer_xe_2015.0.090/bin/intel64/ifort
 FCVERSION : 15.0.0
 BLASLIB   : -L/opt/intel/mkl/lib/intel64 -lmkl_intel_ilp64 -lmkl_sequential -lmkl_core
 id        : emory

 Nodes     nprocs
 node24       3
 Number of processes for MPI-2 version of Molpro:   nprocs(total)=    4   nprocs(compute)=    3   nprocs(helper)=    1
 ga_uses_ma=false, calling ma_init with nominal heap.
 GA-space will be limited to   8.0 MW (determined by -G option)

 Using customized tuning parameters: mindgm=7; mindgv=32; mindgc=1; mindgr=1; noblas=0; mincuda=1000; minvec=7
 default implementation of scratch files=sf  

 ***,co2h2o
 memory,100,m
 basis avtz
 geomtype = xyz
 geometry = {
 6
       0.00000000
 O     0.00351000    1.16210700    0.00000000
 O     0.00351000   -1.16210700    0.00000000
 O     7.41968000    0.00000000    0.00000000
 H     8.00589800    0.00000000    0.75853100
 H     8.00589800    0.00000000   -0.75853100
 C     0.01968000    0.00000000    0.00000000
 }
 hf
 ccsd(t)-f12
 ---

 Variables initialized (665), CPU time= 0.00 sec
 Commands  initialized (462), CPU time= 0.01 sec, 486 directives.
 Default parameters read. Elapsed time= 0.03 sec

 Checking input...
 Passed
1


                                         ***  PROGRAM SYSTEM MOLPRO  ***
                         Copyright, University College Cardiff Consultants Limited, 2008

                                    Version 2010.1 linked 9 Dec 2014 15:06:28 


 **********************************************************************************************************************************
 LABEL *   co2h2o                                                                        
 Linux-2.6.32-504.el6.x86_64/node24(x86_64) 64 bit mpp version                           DATE: 12-Dec-16          TIME: 14:13:31  
 **********************************************************************************************************************************

 Patch level:      19
 **********************************************************************************************************************************

 Variable memory set to  100000000 words,  buffer space   230000 words

 SETTING BASIS          =    AVTZ
 SETTING GEOMTYPE       =    XYZ

Geometry recognized as XYZ



 Recomputing integrals since basis changed


 Using spherical harmonics

 Library entry O      S aug-cc-pVTZ          selected for orbital group  1
 Library entry O      P aug-cc-pVTZ          selected for orbital group  1
 Library entry O      D aug-cc-pVTZ          selected for orbital group  1
 Library entry O      F aug-cc-pVTZ          selected for orbital group  1
 Library entry H      S aug-cc-pVTZ          selected for orbital group  2
 Library entry H      P aug-cc-pVTZ          selected for orbital group  2
 Library entry H      D aug-cc-pVTZ          selected for orbital group  2
 Library entry C      S aug-cc-pVTZ          selected for orbital group  3
 Library entry C      P aug-cc-pVTZ          selected for orbital group  3
 Library entry C      D aug-cc-pVTZ          selected for orbital group  3
 Library entry C      F aug-cc-pVTZ          selected for orbital group  3

1PROGRAM * SEWARD (Integral evaluation for generally contracted gaussian basis sets)     Author: Roland Lindh, 1990

 Geometry written to block  1 of record 700


 Point group  C2v 



 ATOMIC COORDINATES

 NR  ATOM    CHARGE       X              Y              Z

   1  O       8.00    0.006632939    2.196063965    0.000000000
   2  O       8.00    0.006632939   -2.196063965    0.000000000
   3  O       8.00   14.021163183    0.000000000    0.000000000
   4  H       1.00   15.128954656    0.000000000    1.433415852
   5  H       1.00   15.128954656    0.000000000   -1.433415852
   6  C       6.00    0.037189810    0.000000000    0.000000000

 Bond lengths in Bohr (Angstrom)

 1-6  2.196276545  2-6  2.196276545  3-4  1.811596797  3-5  1.811596797
     (1.162219492)     (1.162219492)     (0.958655737)     (0.958655737)

 Bond angles

  1-6-2  178.40563223   4-3-5  104.60391356

 NUCLEAR CHARGE:                   32
 NUMBER OF PRIMITIVE AOS:         322
 NUMBER OF SYMMETRY AOS:          282
 NUMBER OF CONTRACTIONS:          230   (  84A1  +  59B1  +  54B2  +  33A2  )
 NUMBER OF CORE ORBITALS:           4   (   3A1  +   1B1  +   0B2  +   0A2  )
 NUMBER OF VALENCE ORBITALS:       18   (   8A1  +   5B1  +   4B2  +   1A2  )


 NUCLEAR REPULSION ENERGY   82.79497210


 Eigenvalues of metric

         1 0.373E-03 0.407E-03 0.901E-03 0.179E-02 0.317E-02 0.321E-02 0.404E-02 0.512E-02
         2 0.349E-03 0.922E-03 0.175E-02 0.348E-02 0.594E-02 0.744E-02 0.204E-01 0.215E-01
         3 0.394E-03 0.166E-02 0.318E-02 0.509E-02 0.622E-02 0.100E-01 0.136E-01 0.156E-01
         4 0.348E-02 0.124E-01 0.296E-01 0.363E-01 0.561E-01 0.679E-01 0.110E+00 0.139E+00


 Contracted 2-electron integrals neglected if value below      1.0D-11
 AO integral compression algorithm  1   Integral accuracy      1.0D-11

     179.569 MB (compressed) written to integral file ( 23.7%)

     Node minimum: 49.545 MB, node maximum: 71.565 MB


 NUMBER OF SORTED TWO-ELECTRON INTEGRALS:   29979201.     BUFFER LENGTH:  32768
 NUMBER OF SEGMENTS:   2  SEGMENT LENGTH:   15996954      RECORD LENGTH: 524288

 Memory used in sort:      16.55 MW

 SORT1 READ    94784410. AND WROTE    11216734. INTEGRALS IN     33 RECORDS. CPU TIME:     2.35 SEC, REAL TIME:     2.55 SEC
 SORT2 READ    33673349. AND WROTE    89930217. INTEGRALS IN    819 RECORDS. CPU TIME:     0.43 SEC, REAL TIME:     0.57 SEC

 Node minimum:    29974277.  Node maximum:    29979201. integrals

 OPERATOR DM      FOR CENTER  0  COORDINATES:    0.000000    0.000000    0.000000


 **********************************************************************************************************************************
 DATASETS  * FILE   NREC   LENGTH (MB)   RECORD NAMES
              1      18        3.23       500      610      700      900      950      970     1000      129      960     1100   
                                          VAR    BASINP    GEOM    SYMINP    ZMAT    AOBASIS   BASIS     P2S    ABASIS      S 
                                         1400     1410     1200     1210     1080     1600     1650     1700   
                                           T        V       H0       H01     AOSYM     SMH    MOLCAS    OPER   

 PROGRAMS   *        TOTAL       INT
 CPU TIMES  *         4.55      4.48
 REAL TIME  *         6.04 SEC
 DISK USED  *       586.98 MB      
 GA USED    *         0.00 MB       (max)       0.00 MB       (current)
 **********************************************************************************************************************************

1PROGRAM * RHF-SCF (CLOSED SHELL)       Authors: W. Meyer, H.-J. Werner


 NUMBER OF ELECTRONS:      16+   16-
 CONVERGENCE THRESHOLDS:    1.00E-05 (Density)    1.00E-07 (Energy)
 MAX. NUMBER OF ITERATIONS:       60
 INTERPOLATION TYPE:            DIIS
 INTERPOLATION STEPS:              2 (START)      1 (STEP)
 LEVEL SHIFTS:                  0.00 (CLOSED)  0.00 (OPEN) 



 Orbital guess generated from atomic densities. Full valence occupancy:   11   6   4   1

 Molecular orbital dump at record        2100.2

 Initial alpha occupancy:   8   5   2   1
 Initial beta  occupancy:   8   5   2   1
 Wave function symmetry:    1

 ITERATION    DDIFF          GRAD             ENERGY        2-EL.EN.            DIPOLE MOMENTS         DIIS
    1      0.000D+00      0.000D+00      -263.66044007    361.215447    1.18061    0.00000    0.00000    0
    2      0.000D+00      0.888D-02      -263.72571318    356.615112    0.68983    0.00000    0.00000    1
    3      0.143D-01      0.603D-02      -263.76899942    359.181167    0.81128    0.00000    0.00000    2
    4      0.587D-02      0.568D-03      -263.76949458    358.969257    0.81478    0.00000    0.00000    3
    5      0.695D-03      0.165D-03      -263.76955262    358.971304    0.80936    0.00000    0.00000    4
    6      0.258D-03      0.666D-04      -263.76955980    358.985798    0.81007    0.00000    0.00000    5
    7      0.855D-04      0.163D-04      -263.76956053    358.977438    0.80962    0.00000    0.00000    6
    8      0.281D-04      0.359D-05      -263.76956058    358.978741    0.80963    0.00000    0.00000    7
    9      0.768D-05      0.121D-05      -263.76956058    358.978547    0.80960    0.00000    0.00000    0

 Final occupancy:   8   5   2   1

 !RHF STATE 1.1 Energy               -263.769560583641
 Nuclear energy                        82.79497210
 One-electron energy                 -526.05380626
 Two-electron energy                  179.48927358
 Virial quotient                       -1.00182772
 !RHF STATE 1.1 Dipole moment           0.80960406     0.00000000     0.00000000
 Dipole moment /Debye                   2.05767349     0.00000000     0.00000000

 Orbital energies:

         1.1          2.1          3.1          4.1          5.1          6.1          7.1          8.1          9.1         10.1
    -20.649642   -20.568170   -11.458490    -1.527300    -1.353576    -0.797590    -0.711330    -0.585328     0.028265     0.051407

         1.2          2.2          3.2          4.2          5.2          6.2          7.2
    -20.649688    -1.474223    -0.739836    -0.541003    -0.510998     0.081882     0.154281

         1.3          2.3          3.3          4.3
     -0.718016    -0.711391     0.046935     0.076739

         1.4          2.4          3.4
     -0.541049     0.166896     0.264658


 **********************************************************************************************************************************
 DATASETS  * FILE   NREC   LENGTH (MB)   RECORD NAMES
              1      18        3.25       500      610      700      900      950      970     1000      129      960     1100   
                                          VAR    BASINP    GEOM    SYMINP    ZMAT    AOBASIS   BASIS     P2S    ABASIS      S 
                                         1400     1410     1200     1210     1080     1600     1650     1700   
                                           T        V       H0       H01     AOSYM     SMH    MOLCAS    OPER   

              2       3        0.67       700     1000     2100   
                                         GEOM     BASIS     RHF  

 PROGRAMS   *        TOTAL        HF       INT
 CPU TIMES  *         5.71      1.16      4.48
 REAL TIME  *         7.26 SEC
 DISK USED  *       604.37 MB      
 SF USED    *         0.06 MB      
 GA USED    *         0.00 MB       (max)       0.00 MB       (current)
 **********************************************************************************************************************************


1PROGRAM * CCSD (Closed-shell coupled cluster)     Authors: C. Hampel, H.-J. Werner, 1991, M. Deegan, P.J. Knowles, 1992

                                  CCSD-F12 implementation by  H.-J. Werner, 2007

                   Density fitting integral evaluation by F.R. Manby, 2003,2007, G. Knizia, 2010

 Basis set CC-PVTZ/JKFIT generated.      Number of basis functions:   376 
 Basis set AUG-CC-PVTZ/MP2FIT generated. Number of basis functions:   516 

 Convergence thresholds:  THRVAR = 1.00D-08  THRDEN = 1.00D-06

 CCSD(T)     terms to be evaluated (factor= 1.000)


 Number of core orbitals:           4 (   3   1   0   0 )
 Number of closed-shell orbitals:  12 (   5   4   2   1 )
 Number of external orbitals:     214 (  76  54  52  32 )

 Molecular orbitals read from record     2100.2  Type=RHF/CANONICAL (state 1.1)

 MP2-F12 correlation treatment (H.-J. Werner, 2006)
 --------------------------------------------------

 Using MP2-F12 with ansatz 3C(FIX)

 Using projected zeroth-order Hamiltonian (+Z)

 FOCKRIB=T FOCKRIC=T FOCKRIP=T CABSP=T CABSA=T CABSK=T CABSF=T GBC=F EBC=F DMAT=T NOFIK=T NOPAO=1 SOLVE=-1  USEPAO=0
 EXCH_A= T EXCH_B= F EXCH_C= F EXCH_P= F
 
 Geminal basis:    OPTFULL  GEM_TYPE=SLATER  BETA=1.0  NGEM=6

 Optimizing Gaussian exponents for each gem_beta

 Geminal optimization for beta= 1.0000
 Weight function:   m=0, omega= 1.4646

 Augmented Hessian optimization of geminal fit. Trust ratio= 0.40000
 Convergence reached after   2 iterations. Final gradient= 8.24D-16, Step= 4.32D-06, Delta= 1.28D-09
 
 Alpha:                 0.19532     0.81920     2.85917     9.50073    35.69989   197.79328
 Coeff:                 0.27070     0.30552     0.18297     0.10986     0.06810     0.04224
 

 Symmetry turned off. Reference energy:       -263.769560583641

 All pairs explicitly correlated. Number of r12-pairs:           78
 
 AO(A)-basis ORBITAL           loaded. Number of functions:     230
 RI(R)-basis CC-PVTZ/JKFIT     loaded. Number of functions:     376
 DF-basis CC-PVTZ/JKFIT        loaded. Number of functions:     376

 Screening thresholds:   THRAO=  1.00D-10  THRMO=  1.00D-09  THRPROD=  1.00D-09
                         THRSW=  1.00D-05  THROV=  1.00D-12  THRF12=   1.00D-08

 CPU time for Fock operators                      0.99 sec
 
 Construction of ABS:
 Smallest eigenvalue of S          2.57E-04  (threshold= 1.00E-08)
 Ratio eigmin/eigmax               1.83E-06  (threshold= 1.00E-09)
 Smallest eigenvalue of S kept     2.57E-04  (threshold= 2.57E-04, 0 functions deleted, 376 kept)
 
 Construction of CABS:
 Smallest eigenvalue of S          2.30E-08  (threshold= 1.00E-08)
 Ratio eigmin/eigmax               2.30E-08  (threshold= 1.00E-09)
 Smallest eigenvalue of S kept     2.30E-08  (threshold= 2.30E-08, 0 functions deleted, 376 kept)
 
 CPU time for CABS singles                        0.19 sec

 CABS-singles contribution of  -0.01592352 patched into reference energy.
 New reference energy        -263.78548410
 
 AO(A)-basis ORBITAL           loaded. Number of functions:     230
 RI(R)-basis CC-PVTZ/JKFIT     loaded. Number of functions:     376
 DF-basis AUG-CC-PVTZ/MP2FIT   loaded. Number of functions:     516

 Screening thresholds:   THRAO=  1.00D-10  THRMO=  1.00D-09  THRPROD=  1.00D-09
                         THRSW=  1.00D-05  THROV=  1.00D-12  THRF12=   1.00D-08

 CPU time for 3-index integral evaluation         2.01 sec
 CPU time for first  half transformation          0.29 sec ( 7805.4 MFLOP/sec)
 CPU time for second half transformation          0.02 sec ( 4468.2 MFLOP/sec)
 CPU time for sorting                             0.15 sec
 CPU time for fitting                             0.05 sec (27861.0 MFLOP/sec)
 CPU time for tilde quantities                    0.07 sec (26290.9 MFLOP/sec)
 CPU time for assembly                            0.87 sec (26172.5 MFLOP/sec)
 CPU time for tranop_f12                          1.04 sec (27245.0 MFLOP/sec)
 CPU time for f12 integrals (total)               6.95 sec
 F12-matrices built in  3 passes.
 F12-matrices built in  3 passes.
 F12-matrices built in  3 passes.
 F12-matrices built in  3 passes.
 FC-matrix built in  3 passes.
 CPU time for f12 matrices (total)                0.62 sec

 Diagonal F12 approximation with fixed coefficients:  TSING= 0.500,  TTRIP= 0.250 (scaled by -1/beta)

 DF-MP2-F12 energy corrections:
 ------------------------------
 Approx.                                    Singlet             Triplet             Total
 DF-MP2-F12/3*C(DX,FIX)                -0.097448728499     -0.016933420219     -0.114382148718
 DF-MP2-F12/3*C(FIX)                   -0.079864327689     -0.013395538990     -0.093259866679
 DF-MP2-F12/3C(FIX)                    -0.080225279561     -0.013418867783     -0.093644147344

 DF-MP2-F12 correlation energies:
 --------------------------------
 Approx.                                    Singlet             Triplet             Ecorr            Total Energy
 DF-MP2                                -0.537738027150     -0.343079749639     -0.880817776789   -264.666301880667
 DF-MP2-F12/3*C(DX,FIX)                -0.635186755649     -0.360013169858     -0.995199925507   -264.780684029385
 DF-MP2-F12/3*C(FIX)                   -0.617602354839     -0.356475288629     -0.974077643468   -264.759561747346
 DF-MP2-F12/3C(FIX)                    -0.617963306711     -0.356498617422     -0.974461924133   -264.759946028011

 SCS-DF-MP2 energies (F_SING= 1.20000  F_TRIP= 0.62222  F_PARALLEL= 0.33333):
 ----------------------------------------------------------------------------
 SCS-DF-MP2                            -0.858757476800   -264.644241580678
 SCS-DF-MP2-F12/3*C(DX,FIX)            -0.986232301357   -264.771716405235
 SCS-DF-MP2-F12/3*C(FIX)               -0.962929672065   -264.748413775943
 SCS-DF-MP2-F12/3C(FIX)                -0.963377330005   -264.748861433883

 Symmetry restored.
 Symmetry transformation completed.

 Number of N-1 electron functions:              12
 Number of N-2 electron functions:              78
 Number of singly external CSFs:               732
 Number of doubly external CSFs:            836016
 Total number of CSFs:                      836749

 Pair and operator lists are different

 Length of J-op  integral file:             462.26 MB
 Length of K-op  integral file:             502.03 MB
 Length of 3-ext integral record:             0.00 MB

 Memory could be reduced to 38.69 Mwords without degradation in triples

 Integral transformation finished. Total CPU:   2.66 sec, npass=  1  Memory used:   6.07 MW

 Reference energy:                   -263.78548410

 Adding F12 terms to K(Cij), methodcc=6,  factor=1.0

 ITER.      SQ.NORM     CORR.ENERGY   TOTAL ENERGY   ENERGY CHANGE        DEN1      VAR(S)    VAR(P)  DIIS     TIME
   1      1.20215400    -0.86276837  -264.64825247     0.01806585     0.04669988  0.72D-02  0.56D-02  1  1    13.19
   2      1.21646752    -0.85854139  -264.64402550     0.00422697    -0.02015377  0.86D-04  0.59D-03  2  2    14.61
   3      1.22182911    -0.85863772  -264.64412182    -0.00009633    -0.00236448  0.13D-03  0.32D-04  3  3    15.81
   4      1.22463157    -0.85850985  -264.64399395     0.00012787    -0.00141157  0.76D-05  0.41D-05  4  4    17.10
   5      1.22566175    -0.85847215  -264.64395626     0.00003769    -0.00036644  0.56D-06  0.29D-06  5  5    18.28
   6      1.22582394    -0.85844529  -264.64392939     0.00002686    -0.00000805  0.40D-07  0.24D-07  6  6    19.47
   7      1.22585329    -0.85844287  -264.64392697     0.00000242    -0.00000622  0.25D-08  0.40D-08  6  4    21.21
   8      1.22585359    -0.85844238  -264.64392648     0.00000049     0.00000195  0.39D-09  0.27D-09  6  1    22.59
   9      1.22585420    -0.85844244  -264.64392655    -0.00000007     0.00000056  0.25D-10  0.21D-10  6  2    23.82

 Norm of t1 vector:      0.10597187      S-energy:    -0.00000003      T1 diagnostic:  0.01529572
                                                                       D1 diagnostic:  0.04495516

 Adding energy correction from Wij-K(Fij), methodcc=6  factor=1.0
 
  CCSD correlation energy              -0.858442443514
  MP2-F12 correction (uncoupled)       -0.092487109593
  C*T doubles correction               -0.001475727685
  f12b correction                       0.015406747922


 Total CPU time for triples:     31.93 sec


 RESULTS
 =======

  Reference energy                   -263.769560583641
  F12 singles correction               -0.015923520237

 F12 singles corrections added to reference energy

  New reference energy               -263.785484103878

  F12a singlet correction              -0.080425377298
  F12a triplet correction              -0.013537459980
  F12a total correction                -0.093962837278

 F12a corrections for ansatz F12/3C(FIX) added to CCSD energy
 
  CCSD-F12a singlet pair energy        -0.641901198079
  CCSD-F12a triplet pair energy        -0.310504055704
  CCSD-F12a correlation energy         -0.952405280791

  Triples (T) contribution             -0.037641035192
  Total correlation energy             -0.990046315983

  CCSD-F12a total energy             -264.737889384669
  CCSD[T]-F12a energy                -264.778074243649
  CCSD-T-F12a energy                 -264.774592781697
 !CCSD(T)-F12a total energy          -264.775530419861

 F12b corrections for ansatz F12/3C(FIX) added to CCSD(T)-F12a energy

  CCSD-F12b singlet pair energy        -0.627717738049
  CCSD-F12b triplet pair energy        -0.309280767812
  CCSD-F12b correlation energy         -0.936998532869

  Triples (T) contribution             -0.037641035192
  Total correlation energy             -0.974639568061

  CCSD-F12b total energy             -264.722482636747
  CCSD[T]-F12b energy                -264.762667495727
  CCSD-T-F12b energy                 -264.759186033775
 !CCSD(T)-F12b total energy          -264.760123671939

 Timing summary (sec):

 STEP                 CPU(USER)    SYS     CPU(TOT)    WALL
 Transformation          2.67      0.33      3.00      3.00
 CCSD iterations        11.75      1.05     12.80     13.18
 Triples                31.93      0.77     32.70     32.68
 MP2-F12                 9.40      1.29     10.69     10.76
 F12b energy             0.73      0.02      0.75      0.76

 Program statistics:

 Available memory in ccsd:                99998934
 Min. memory needed in ccsd:               2244783
 Max. memory used in ccsd:                 3005571
 Max. memory used in cckext:               2769663 (10 integral passes)



 **********************************************************************************************************************************
 DATASETS  * FILE   NREC   LENGTH (MB)   RECORD NAMES
              1      20      137.19       500      610      700      900      950      970     1000      129      960     1100   
                                          VAR    BASINP    GEOM    SYMINP    ZMAT    AOBASIS   BASIS     P2S    ABASIS      S 
                                         1400     1410     1200     1210     1080     1600     1650     1700      960(1)  1380   
                                           T        V       H0       H01     AOSYM     SMH    MOLCAS    OPER    ABASIS    JKOP   

              2       5        0.97       700     1000     2100     7360     7350   
                                         GEOM     BASIS     RHF    F12ABS    EF12   

 PROGRAMS   *        TOTAL   CCSD(T)        HF       INT
 CPU TIMES  *        62.26     56.55      1.16      4.48
 REAL TIME  *        67.92 SEC
 DISK USED  *       826.04 MB      
 SF USED    *         1.33 GB      
 GA USED    *         2.40 MB       (max)       0.00 MB       (current)
 **********************************************************************************************************************************

     CCSD(T)-F12        HF-SCF  
   -264.76012367   -263.76956058
 **********************************************************************************************************************************
 Variable memory released
