
 Primary working directories    : /scratch/kee
 Secondary working directories  : /scratch/kee
 Wavefunction directory         : /home/kee/wfu/
 Main file repository           : /scratch/kee/

 ARCHNAME  : Linux/x86_64
 FC        : /opt/intel/composer_xe_2015.0.090/bin/intel64/ifort
 FCVERSION : 15.0.0
 BLASLIB   : -L/opt/intel/mkl/lib/intel64 -lmkl_intel_ilp64 -lmkl_sequential -lmkl_core
 id        : emory

 Nodes     nprocs
 node7        3
 Number of processes for MPI-2 version of Molpro:   nprocs(total)=    4   nprocs(compute)=    3   nprocs(helper)=    1
 ga_uses_ma=false, calling ma_init with nominal heap.
 GA-space will be limited to   8.0 MW (determined by -G option)

 Using customized tuning parameters: mindgm=7; mindgv=32; mindgc=1; mindgr=1; noblas=0; mincuda=1000; minvec=7
 default implementation of scratch files=sf  

 ***,co2h2o
 memory,100,m
 basis avtz
 geomtype = xyz
 geometry = {
 6
       0.00000000
 O     0.00351000    1.16210700    0.00000000
 O     0.00351000   -1.16210700    0.00000000
 O     4.76968000    0.00000000    0.00000000
 H     5.35589800    0.00000000    0.75853100
 H     5.35589800    0.00000000   -0.75853100
 C     0.01968000    0.00000000    0.00000000
 }
 hf
 ccsd(t)-f12
 ---

 Variables initialized (665), CPU time= 0.01 sec
 Commands  initialized (462), CPU time= 0.00 sec, 486 directives.
 Default parameters read. Elapsed time= 0.03 sec

 Checking input...
 Passed
1


                                         ***  PROGRAM SYSTEM MOLPRO  ***
                         Copyright, University College Cardiff Consultants Limited, 2008

                                    Version 2010.1 linked 9 Dec 2014 15:06:28 


 **********************************************************************************************************************************
 LABEL *   co2h2o                                                                        
 Linux-2.6.32-504.el6.x86_64/node7(x86_64) 64 bit mpp version                            DATE: 12-Dec-16          TIME: 14:57:08  
 **********************************************************************************************************************************

 Patch level:      19
 **********************************************************************************************************************************

 Variable memory set to  100000000 words,  buffer space   230000 words

 SETTING BASIS          =    AVTZ
 SETTING GEOMTYPE       =    XYZ

Geometry recognized as XYZ



 Recomputing integrals since basis changed


 Using spherical harmonics

 Library entry O      S aug-cc-pVTZ          selected for orbital group  1
 Library entry O      P aug-cc-pVTZ          selected for orbital group  1
 Library entry O      D aug-cc-pVTZ          selected for orbital group  1
 Library entry O      F aug-cc-pVTZ          selected for orbital group  1
 Library entry H      S aug-cc-pVTZ          selected for orbital group  2
 Library entry H      P aug-cc-pVTZ          selected for orbital group  2
 Library entry H      D aug-cc-pVTZ          selected for orbital group  2
 Library entry C      S aug-cc-pVTZ          selected for orbital group  3
 Library entry C      P aug-cc-pVTZ          selected for orbital group  3
 Library entry C      D aug-cc-pVTZ          selected for orbital group  3
 Library entry C      F aug-cc-pVTZ          selected for orbital group  3

1PROGRAM * SEWARD (Integral evaluation for generally contracted gaussian basis sets)     Author: Roland Lindh, 1990

 Geometry written to block  1 of record 700


 Point group  C2v 



 ATOMIC COORDINATES

 NR  ATOM    CHARGE       X              Y              Z

   1  O       8.00    0.006632939    2.196063965    0.000000000
   2  O       8.00    0.006632939   -2.196063965    0.000000000
   3  O       8.00    9.013388935    0.000000000    0.000000000
   4  H       1.00   10.121180408    0.000000000    1.433415852
   5  H       1.00   10.121180408    0.000000000   -1.433415852
   6  C       6.00    0.037189810    0.000000000    0.000000000

 Bond lengths in Bohr (Angstrom)

 1-6  2.196276545  2-6  2.196276545  3-4  1.811596797  3-5  1.811596797
     (1.162219492)     (1.162219492)     (0.958655737)     (0.958655737)

 Bond angles

  1-6-2  178.40563223   4-3-5  104.60391356

 NUCLEAR CHARGE:                   32
 NUMBER OF PRIMITIVE AOS:         322
 NUMBER OF SYMMETRY AOS:          282
 NUMBER OF CONTRACTIONS:          230   (  84A1  +  59B1  +  54B2  +  33A2  )
 NUMBER OF CORE ORBITALS:           4   (   3A1  +   1B1  +   0B2  +   0A2  )
 NUMBER OF VALENCE ORBITALS:       18   (   8A1  +   5B1  +   4B2  +   1A2  )


 NUCLEAR REPULSION ENERGY   90.85786718


 Eigenvalues of metric

         1 0.360E-03 0.381E-03 0.898E-03 0.165E-02 0.311E-02 0.320E-02 0.389E-02 0.426E-02
         2 0.349E-03 0.921E-03 0.175E-02 0.336E-02 0.561E-02 0.743E-02 0.175E-01 0.209E-01
         3 0.389E-03 0.165E-02 0.318E-02 0.483E-02 0.621E-02 0.988E-02 0.135E-01 0.153E-01
         4 0.348E-02 0.124E-01 0.296E-01 0.363E-01 0.560E-01 0.679E-01 0.110E+00 0.140E+00


 Contracted 2-electron integrals neglected if value below      1.0D-11
 AO integral compression algorithm  1   Integral accuracy      1.0D-11

     268.698 MB (compressed) written to integral file ( 30.1%)

     Node minimum: 79.954 MB, node maximum: 97.518 MB


 NUMBER OF SORTED TWO-ELECTRON INTEGRALS:   29979201.     BUFFER LENGTH:  32768
 NUMBER OF SEGMENTS:   2  SEGMENT LENGTH:   15996954      RECORD LENGTH: 524288

 Memory used in sort:      16.55 MW

 SORT1 READ   111461788. AND WROTE    19104549. INTEGRALS IN     56 RECORDS. CPU TIME:     2.17 SEC, REAL TIME:     2.41 SEC
 SORT2 READ    57472678. AND WROTE    89930217. INTEGRALS IN    915 RECORDS. CPU TIME:     0.59 SEC, REAL TIME:     0.77 SEC

 Node minimum:    29974277.  Node maximum:    29979201. integrals

 OPERATOR DM      FOR CENTER  0  COORDINATES:    0.000000    0.000000    0.000000


 **********************************************************************************************************************************
 DATASETS  * FILE   NREC   LENGTH (MB)   RECORD NAMES
              1      18        3.23       500      610      700      900      950      970     1000      129      960     1100   
                                          VAR    BASINP    GEOM    SYMINP    ZMAT    AOBASIS   BASIS     P2S    ABASIS      S 
                                         1400     1410     1200     1210     1080     1600     1650     1700   
                                           T        V       H0       H01     AOSYM     SMH    MOLCAS    OPER   

 PROGRAMS   *        TOTAL       INT
 CPU TIMES  *         4.77      4.70
 REAL TIME  *         5.37 SEC
 DISK USED  *       955.23 MB      
 GA USED    *         0.00 MB       (max)       0.00 MB       (current)
 **********************************************************************************************************************************

1PROGRAM * RHF-SCF (CLOSED SHELL)       Authors: W. Meyer, H.-J. Werner


 NUMBER OF ELECTRONS:      16+   16-
 CONVERGENCE THRESHOLDS:    1.00E-05 (Density)    1.00E-07 (Energy)
 MAX. NUMBER OF ITERATIONS:       60
 INTERPOLATION TYPE:            DIIS
 INTERPOLATION STEPS:              2 (START)      1 (STEP)
 LEVEL SHIFTS:                  0.00 (CLOSED)  0.00 (OPEN) 



 Orbital guess generated from atomic densities. Full valence occupancy:   11   6   4   1

 Molecular orbital dump at record        2100.2

 Initial alpha occupancy:   8   5   2   1
 Initial beta  occupancy:   8   5   2   1
 Wave function symmetry:    1

 ITERATION    DDIFF          GRAD             ENERGY        2-EL.EN.            DIPOLE MOMENTS         DIIS
    1      0.000D+00      0.000D+00      -263.66164801    377.590061    1.18080    0.00000    0.00000    0
    2      0.000D+00      0.886D-02      -263.72670999    372.914184    0.72114    0.00000    0.00000    1
    3      0.142D-01      0.600D-02      -263.76950120    375.483501    0.83284    0.00000    0.00000    2
    4      0.585D-02      0.568D-03      -263.76999618    375.275883    0.83603    0.00000    0.00000    3
    5      0.696D-03      0.165D-03      -263.77005430    375.275307    0.83096    0.00000    0.00000    4
    6      0.259D-03      0.670D-04      -263.77006155    375.290421    0.83173    0.00000    0.00000    5
    7      0.860D-04      0.163D-04      -263.77006228    375.281942    0.83130    0.00000    0.00000    6
    8      0.281D-04      0.359D-05      -263.77006233    375.283256    0.83131    0.00000    0.00000    7
    9      0.768D-05      0.121D-05      -263.77006233    375.283051    0.83128    0.00000    0.00000    0

 Final occupancy:   8   5   2   1

 !RHF STATE 1.1 Energy               -263.770062334912
 Nuclear energy                        90.85786718
 One-electron energy                 -542.26945483
 Two-electron energy                  187.64152532
 Virial quotient                       -1.00183385
 !RHF STATE 1.1 Dipole moment           0.83128034     0.00000000     0.00000000
 Dipole moment /Debye                   2.11276548     0.00000000     0.00000000

 Orbital energies:

         1.1          2.1          3.1          4.1          5.1          6.1          7.1          8.1          9.1         10.1
    -20.644603   -20.570132   -11.453600    -1.522258    -1.355566    -0.792737    -0.706134    -0.587633     0.027758     0.057954

         1.2          2.2          3.2          4.2          5.2          6.2          7.2
    -20.644648    -1.469213    -0.735028    -0.536013    -0.513023     0.085005     0.151295

         1.3          2.3          3.3          4.3
     -0.720007    -0.706443     0.046095     0.083021

         1.4          2.4          3.4
     -0.536164     0.169110     0.264365


 **********************************************************************************************************************************
 DATASETS  * FILE   NREC   LENGTH (MB)   RECORD NAMES
              1      18        3.25       500      610      700      900      950      970     1000      129      960     1100   
                                          VAR    BASINP    GEOM    SYMINP    ZMAT    AOBASIS   BASIS     P2S    ABASIS      S 
                                         1400     1410     1200     1210     1080     1600     1650     1700   
                                           T        V       H0       H01     AOSYM     SMH    MOLCAS    OPER   

              2       3        0.67       700     1000     2100   
                                         GEOM     BASIS     RHF  

 PROGRAMS   *        TOTAL        HF       INT
 CPU TIMES  *         6.16      1.39      4.70
 REAL TIME  *         6.84 SEC
 DISK USED  *       972.62 MB      
 SF USED    *         0.06 MB      
 GA USED    *         0.00 MB       (max)       0.00 MB       (current)
 **********************************************************************************************************************************


1PROGRAM * CCSD (Closed-shell coupled cluster)     Authors: C. Hampel, H.-J. Werner, 1991, M. Deegan, P.J. Knowles, 1992

                                  CCSD-F12 implementation by  H.-J. Werner, 2007

                   Density fitting integral evaluation by F.R. Manby, 2003,2007, G. Knizia, 2010

 Basis set CC-PVTZ/JKFIT generated.      Number of basis functions:   376 
 Basis set AUG-CC-PVTZ/MP2FIT generated. Number of basis functions:   516 

 Convergence thresholds:  THRVAR = 1.00D-08  THRDEN = 1.00D-06

 CCSD(T)     terms to be evaluated (factor= 1.000)


 Number of core orbitals:           4 (   3   1   0   0 )
 Number of closed-shell orbitals:  12 (   5   4   2   1 )
 Number of external orbitals:     214 (  76  54  52  32 )

 Molecular orbitals read from record     2100.2  Type=RHF/CANONICAL (state 1.1)

 MP2-F12 correlation treatment (H.-J. Werner, 2006)
 --------------------------------------------------

 Using MP2-F12 with ansatz 3C(FIX)

 Using projected zeroth-order Hamiltonian (+Z)

 FOCKRIB=T FOCKRIC=T FOCKRIP=T CABSP=T CABSA=T CABSK=T CABSF=T GBC=F EBC=F DMAT=T NOFIK=T NOPAO=1 SOLVE=-1  USEPAO=0
 EXCH_A= T EXCH_B= F EXCH_C= F EXCH_P= F
 
 Geminal basis:    OPTFULL  GEM_TYPE=SLATER  BETA=1.0  NGEM=6

 Optimizing Gaussian exponents for each gem_beta

 Geminal optimization for beta= 1.0000
 Weight function:   m=0, omega= 1.4646

 Augmented Hessian optimization of geminal fit. Trust ratio= 0.40000
 Convergence reached after   2 iterations. Final gradient= 8.24D-16, Step= 4.32D-06, Delta= 1.28D-09
 
 Alpha:                 0.19532     0.81920     2.85917     9.50073    35.69989   197.79328
 Coeff:                 0.27070     0.30552     0.18297     0.10986     0.06810     0.04224
 

 Symmetry turned off. Reference energy:       -263.770062334913

 All pairs explicitly correlated. Number of r12-pairs:           78
 
 AO(A)-basis ORBITAL           loaded. Number of functions:     230
 RI(R)-basis CC-PVTZ/JKFIT     loaded. Number of functions:     376
 DF-basis CC-PVTZ/JKFIT        loaded. Number of functions:     376

 Screening thresholds:   THRAO=  1.00D-10  THRMO=  1.00D-09  THRPROD=  1.00D-09
                         THRSW=  1.00D-05  THROV=  1.00D-12  THRF12=   1.00D-08

 CPU time for Fock operators                      0.94 sec
 
 Construction of ABS:
 Smallest eigenvalue of S          2.57E-04  (threshold= 1.00E-08)
 Ratio eigmin/eigmax               1.83E-06  (threshold= 1.00E-09)
 Smallest eigenvalue of S kept     2.57E-04  (threshold= 2.57E-04, 0 functions deleted, 376 kept)
 
 Construction of CABS:
 Smallest eigenvalue of S          2.30E-08  (threshold= 1.00E-08)
 Ratio eigmin/eigmax               2.30E-08  (threshold= 1.00E-09)
 Smallest eigenvalue of S kept     2.30E-08  (threshold= 2.30E-08, 0 functions deleted, 376 kept)
 
 CPU time for CABS singles                        0.17 sec

 CABS-singles contribution of  -0.01592079 patched into reference energy.
 New reference energy        -263.78598313
 
 AO(A)-basis ORBITAL           loaded. Number of functions:     230
 RI(R)-basis CC-PVTZ/JKFIT     loaded. Number of functions:     376
 DF-basis AUG-CC-PVTZ/MP2FIT   loaded. Number of functions:     516

 Screening thresholds:   THRAO=  1.00D-10  THRMO=  1.00D-09  THRPROD=  1.00D-09
                         THRSW=  1.00D-05  THROV=  1.00D-12  THRF12=   1.00D-08

 CPU time for 3-index integral evaluation         2.42 sec
 CPU time for first  half transformation          0.32 sec ( 9286.9 MFLOP/sec)
 CPU time for second half transformation          0.03 sec ( 3490.9 MFLOP/sec)
 CPU time for sorting                             0.17 sec
 CPU time for fitting                             0.05 sec (27861.0 MFLOP/sec)
 CPU time for tilde quantities                    0.07 sec (26412.6 MFLOP/sec)
 CPU time for assembly                            0.79 sec (29912.0 MFLOP/sec)
 CPU time for tranop_f12                          0.93 sec (32395.2 MFLOP/sec)
 CPU time for f12 integrals (total)               6.88 sec
 F12-matrices built in  3 passes.
 F12-matrices built in  3 passes.
 F12-matrices built in  3 passes.
 F12-matrices built in  3 passes.
 FC-matrix built in  3 passes.
 CPU time for f12 matrices (total)                0.52 sec

 Diagonal F12 approximation with fixed coefficients:  TSING= 0.500,  TTRIP= 0.250 (scaled by -1/beta)

 DF-MP2-F12 energy corrections:
 ------------------------------
 Approx.                                    Singlet             Triplet             Total
 DF-MP2-F12/3*C(DX,FIX)                -0.097435088859     -0.016931504472     -0.114366593331
 DF-MP2-F12/3*C(FIX)                   -0.079854080836     -0.013394186049     -0.093248266885
 DF-MP2-F12/3C(FIX)                    -0.080216042728     -0.013418091516     -0.093634134244

 DF-MP2-F12 correlation energies:
 --------------------------------
 Approx.                                    Singlet             Triplet             Ecorr            Total Energy
 DF-MP2                                -0.537711654301     -0.343110352388     -0.880822006688   -264.666805135888
 DF-MP2-F12/3*C(DX,FIX)                -0.635146743159     -0.360041856860     -0.995188600019   -264.781171729218
 DF-MP2-F12/3*C(FIX)                   -0.617565735136     -0.356504538437     -0.974070273573   -264.760053402773
 DF-MP2-F12/3C(FIX)                    -0.617927697029     -0.356528443904     -0.974456140933   -264.760439270132

 SCS-DF-MP2 energies (F_SING= 1.20000  F_TRIP= 0.62222  F_PARALLEL= 0.33333):
 ----------------------------------------------------------------------------
 SCS-DF-MP2                            -0.858744871091   -264.644728000290
 SCS-DF-MP2-F12/3*C(DX,FIX)            -0.986202136060   -264.772185265259
 SCS-DF-MP2-F12/3*C(FIX)               -0.962903928302   -264.748887057502
 SCS-DF-MP2-F12/3C(FIX)                -0.963353157086   -264.749336286286

 Symmetry restored.
 Symmetry transformation completed.

 Number of N-1 electron functions:              12
 Number of N-2 electron functions:              78
 Number of singly external CSFs:               732
 Number of doubly external CSFs:            836016
 Total number of CSFs:                      836749

 Pair and operator lists are different

 Length of J-op  integral file:             462.26 MB
 Length of K-op  integral file:             502.03 MB
 Length of 3-ext integral record:             0.00 MB

 Memory could be reduced to 38.69 Mwords without degradation in triples

 Integral transformation finished. Total CPU:   1.41 sec, npass=  1  Memory used:   6.07 MW

 Reference energy:                   -263.78598313

 Adding F12 terms to K(Cij), methodcc=6,  factor=1.0

 ITER.      SQ.NORM     CORR.ENERGY   TOTAL ENERGY   ENERGY CHANGE        DEN1      VAR(S)    VAR(P)  DIIS     TIME
   1      1.20213191    -0.86278128  -264.64876440     0.01805687     0.04667025  0.72D-02  0.56D-02  1  1    11.24
   2      1.21644037    -0.85856366  -264.64454679     0.00421761    -0.02014353  0.87D-04  0.59D-03  2  2    12.21
   3      1.22180416    -0.85866187  -264.64464500    -0.00009820    -0.00236549  0.13D-03  0.32D-04  3  3    13.23
   4      1.22460818    -0.85853427  -264.64451740     0.00012760    -0.00141181  0.76D-05  0.41D-05  4  4    14.22
   5      1.22563883    -0.85849665  -264.64447978     0.00003763    -0.00036632  0.56D-06  0.29D-06  5  5    15.21
   6      1.22580113    -0.85846977  -264.64445290     0.00002687    -0.00000806  0.40D-07  0.24D-07  6  6    16.21
   7      1.22583052    -0.85846735  -264.64445048     0.00000242    -0.00000622  0.26D-08  0.40D-08  6  4    17.21
   8      1.22583083    -0.85846686  -264.64444999     0.00000049     0.00000194  0.39D-09  0.27D-09  6  1    18.24
   9      1.22583145    -0.85846693  -264.64445006    -0.00000007     0.00000056  0.26D-10  0.21D-10  6  2    19.27

 Norm of t1 vector:      0.10599092      S-energy:    -0.00000003      T1 diagnostic:  0.01529847
                                                                       D1 diagnostic:  0.04501108

 Adding energy correction from Wij-K(Fij), methodcc=6  factor=1.0
 
  CCSD correlation energy              -0.858466928821
  MP2-F12 correction (uncoupled)       -0.092476636192
  C*T doubles correction               -0.001474952037
  f12b correction                       0.015405937420


 Total CPU time for triples:     27.45 sec


 RESULTS
 =======

  Reference energy                   -263.770062334913
  F12 singles correction               -0.015920794287

 F12 singles corrections added to reference energy

  New reference energy               -263.785983129199

  F12a singlet correction              -0.080415216218
  F12a triplet correction              -0.013536372011
  F12a total correction                -0.093951588228

 F12a corrections for ansatz F12/3C(FIX) added to CCSD energy
 
  CCSD-F12a singlet pair energy        -0.641861323291
  CCSD-F12a triplet pair energy        -0.310557165139
  CCSD-F12a correlation energy         -0.952418517050

  Triples (T) contribution             -0.037646201443
  Total correlation energy             -0.990064718493

  CCSD-F12a total energy             -264.738401646249
  CCSD[T]-F12a energy                -264.778589727256
  CCSD-T-F12a energy                 -264.775111426494
 !CCSD(T)-F12a total energy          -264.776047847693

 F12b corrections for ansatz F12/3C(FIX) added to CCSD(T)-F12a energy

  CCSD-F12b singlet pair energy        -0.627678765483
  CCSD-F12b triplet pair energy        -0.309333785527
  CCSD-F12b correlation energy         -0.937012579630

  Triples (T) contribution             -0.037646201443
  Total correlation energy             -0.974658781073

  CCSD-F12b total energy             -264.722995708829
  CCSD[T]-F12b energy                -264.763183789836
  CCSD-T-F12b energy                 -264.759705489074
 !CCSD(T)-F12b total energy          -264.760641910272

 Timing summary (sec):

 STEP                 CPU(USER)    SYS     CPU(TOT)    WALL
 Transformation          1.42      0.21      1.63      1.62
 CCSD iterations         8.97      0.64      9.61      9.64
 Triples                27.45      0.77     28.22     28.21
 MP2-F12                 8.88      1.15     10.03     10.04
 F12b energy             0.64      0.02      0.66      0.66

 Program statistics:

 Available memory in ccsd:                99998934
 Min. memory needed in ccsd:               2244783
 Max. memory used in ccsd:                 3005571
 Max. memory used in cckext:               2769663 (10 integral passes)



 **********************************************************************************************************************************
 DATASETS  * FILE   NREC   LENGTH (MB)   RECORD NAMES
              1      20      137.19       500      610      700      900      950      970     1000      129      960     1100   
                                          VAR    BASINP    GEOM    SYMINP    ZMAT    AOBASIS   BASIS     P2S    ABASIS      S 
                                         1400     1410     1200     1210     1080     1600     1650     1700      960(1)  1380   
                                           T        V       H0       H01     AOSYM     SMH    MOLCAS    OPER    ABASIS    JKOP   

              2       5        0.97       700     1000     2100     7360     7350   
                                         GEOM     BASIS     RHF    F12ABS    EF12   

 PROGRAMS   *        TOTAL   CCSD(T)        HF       INT
 CPU TIMES  *        53.54     47.38      1.39      4.70
 REAL TIME  *        57.23 SEC
 DISK USED  *         1.19 GB      
 SF USED    *         1.34 GB      
 GA USED    *         2.40 MB       (max)       0.00 MB       (current)
 **********************************************************************************************************************************

     CCSD(T)-F12        HF-SCF  
   -264.76064191   -263.77006233
 **********************************************************************************************************************************
 Variable memory released
