
 Primary working directories    : /scratch/kee
 Secondary working directories  : /scratch/kee
 Wavefunction directory         : /home/kee/wfu/
 Main file repository           : /scratch/kee/

 ARCHNAME  : Linux/x86_64
 FC        : /opt/intel/composer_xe_2015.0.090/bin/intel64/ifort
 FCVERSION : 15.0.0
 BLASLIB   : -L/opt/intel/mkl/lib/intel64 -lmkl_intel_ilp64 -lmkl_sequential -lmkl_core
 id        : emory

 Nodes     nprocs
 node7        3
 Number of processes for MPI-2 version of Molpro:   nprocs(total)=    4   nprocs(compute)=    3   nprocs(helper)=    1
 ga_uses_ma=false, calling ma_init with nominal heap.
 GA-space will be limited to   8.0 MW (determined by -G option)

 Using customized tuning parameters: mindgm=7; mindgv=32; mindgc=1; mindgr=1; noblas=0; mincuda=1000; minvec=7
 default implementation of scratch files=sf  

 ***,co2h2o
 memory,100,m
 basis avtz
 geomtype = xyz
 geometry = {
 6
       0.00000000
 O     0.00351000    1.16210700    0.00000000
 O     0.00351000   -1.16210700    0.00000000
 O     4.61968000    0.00000000    0.00000000
 H     5.20589800    0.00000000    0.75853100
 H     5.20589800    0.00000000   -0.75853100
 C     0.01968000    0.00000000    0.00000000
 }
 hf
 ccsd(t)-f12
 ---

 Variables initialized (665), CPU time= 0.00 sec
 Commands  initialized (462), CPU time= 0.01 sec, 486 directives.
 Default parameters read. Elapsed time= 0.04 sec

 Checking input...
 Passed
1


                                         ***  PROGRAM SYSTEM MOLPRO  ***
                         Copyright, University College Cardiff Consultants Limited, 2008

                                    Version 2010.1 linked 9 Dec 2014 15:06:28 


 **********************************************************************************************************************************
 LABEL *   co2h2o                                                                        
 Linux-2.6.32-504.el6.x86_64/node7(x86_64) 64 bit mpp version                            DATE: 12-Dec-16          TIME: 14:54:12  
 **********************************************************************************************************************************

 Patch level:      19
 **********************************************************************************************************************************

 Variable memory set to  100000000 words,  buffer space   230000 words

 SETTING BASIS          =    AVTZ
 SETTING GEOMTYPE       =    XYZ

Geometry recognized as XYZ



 Recomputing integrals since basis changed


 Using spherical harmonics

 Library entry O      S aug-cc-pVTZ          selected for orbital group  1
 Library entry O      P aug-cc-pVTZ          selected for orbital group  1
 Library entry O      D aug-cc-pVTZ          selected for orbital group  1
 Library entry O      F aug-cc-pVTZ          selected for orbital group  1
 Library entry H      S aug-cc-pVTZ          selected for orbital group  2
 Library entry H      P aug-cc-pVTZ          selected for orbital group  2
 Library entry H      D aug-cc-pVTZ          selected for orbital group  2
 Library entry C      S aug-cc-pVTZ          selected for orbital group  3
 Library entry C      P aug-cc-pVTZ          selected for orbital group  3
 Library entry C      D aug-cc-pVTZ          selected for orbital group  3
 Library entry C      F aug-cc-pVTZ          selected for orbital group  3

1PROGRAM * SEWARD (Integral evaluation for generally contracted gaussian basis sets)     Author: Roland Lindh, 1990

 Geometry written to block  1 of record 700


 Point group  C2v 



 ATOMIC COORDINATES

 NR  ATOM    CHARGE       X              Y              Z

   1  O       8.00    0.006632939    2.196063965    0.000000000
   2  O       8.00    0.006632939   -2.196063965    0.000000000
   3  O       8.00    8.729930015    0.000000000    0.000000000
   4  H       1.00    9.837721488    0.000000000    1.433415852
   5  H       1.00    9.837721488    0.000000000   -1.433415852
   6  C       6.00    0.037189810    0.000000000    0.000000000

 Bond lengths in Bohr (Angstrom)

 1-6  2.196276545  2-6  2.196276545  3-4  1.811596797  3-5  1.811596797
     (1.162219492)     (1.162219492)     (0.958655737)     (0.958655737)

 Bond angles

  1-6-2  178.40563223   4-3-5  104.60391356

 NUCLEAR CHARGE:                   32
 NUMBER OF PRIMITIVE AOS:         322
 NUMBER OF SYMMETRY AOS:          282
 NUMBER OF CONTRACTIONS:          230   (  84A1  +  59B1  +  54B2  +  33A2  )
 NUMBER OF CORE ORBITALS:           4   (   3A1  +   1B1  +   0B2  +   0A2  )
 NUMBER OF VALENCE ORBITALS:       18   (   8A1  +   5B1  +   4B2  +   1A2  )


 NUCLEAR REPULSION ENERGY   91.57043517


 Eigenvalues of metric

         1 0.361E-03 0.375E-03 0.897E-03 0.164E-02 0.308E-02 0.320E-02 0.384E-02 0.424E-02
         2 0.348E-03 0.921E-03 0.175E-02 0.334E-02 0.557E-02 0.742E-02 0.172E-01 0.209E-01
         3 0.389E-03 0.165E-02 0.317E-02 0.477E-02 0.621E-02 0.983E-02 0.135E-01 0.152E-01
         4 0.348E-02 0.124E-01 0.296E-01 0.363E-01 0.560E-01 0.679E-01 0.110E+00 0.140E+00


 Contracted 2-electron integrals neglected if value below      1.0D-11
 AO integral compression algorithm  1   Integral accuracy      1.0D-11

     276.824 MB (compressed) written to integral file ( 31.1%)

     Node minimum: 83.362 MB, node maximum: 100.401 MB


 NUMBER OF SORTED TWO-ELECTRON INTEGRALS:   29979201.     BUFFER LENGTH:  32768
 NUMBER OF SEGMENTS:   2  SEGMENT LENGTH:   15996954      RECORD LENGTH: 524288

 Memory used in sort:      16.55 MW

 SORT1 READ   111516668. AND WROTE    19769401. INTEGRALS IN     58 RECORDS. CPU TIME:     2.23 SEC, REAL TIME:     2.48 SEC
 SORT2 READ    59482977. AND WROTE    89930217. INTEGRALS IN    954 RECORDS. CPU TIME:     0.60 SEC, REAL TIME:     0.77 SEC

 Node minimum:    29974277.  Node maximum:    29979201. integrals

 OPERATOR DM      FOR CENTER  0  COORDINATES:    0.000000    0.000000    0.000000


 **********************************************************************************************************************************
 DATASETS  * FILE   NREC   LENGTH (MB)   RECORD NAMES
              1      18        3.23       500      610      700      900      950      970     1000      129      960     1100   
                                          VAR    BASINP    GEOM    SYMINP    ZMAT    AOBASIS   BASIS     P2S    ABASIS      S 
                                         1400     1410     1200     1210     1080     1600     1650     1700   
                                           T        V       H0       H01     AOSYM     SMH    MOLCAS    OPER   

 PROGRAMS   *        TOTAL       INT
 CPU TIMES  *         4.85      4.78
 REAL TIME  *         5.43 SEC
 DISK USED  *       987.58 MB      
 GA USED    *         0.00 MB       (max)       0.00 MB       (current)
 **********************************************************************************************************************************

1PROGRAM * RHF-SCF (CLOSED SHELL)       Authors: W. Meyer, H.-J. Werner


 NUMBER OF ELECTRONS:      16+   16-
 CONVERGENCE THRESHOLDS:    1.00E-05 (Density)    1.00E-07 (Energy)
 MAX. NUMBER OF ITERATIONS:       60
 INTERPOLATION TYPE:            DIIS
 INTERPOLATION STEPS:              2 (START)      1 (STEP)
 LEVEL SHIFTS:                  0.00 (CLOSED)  0.00 (OPEN) 



 Orbital guess generated from atomic densities. Full valence occupancy:   11   6   4   1

 Molecular orbital dump at record        2100.2

 Initial alpha occupancy:   8   5   2   1
 Initial beta  occupancy:   8   5   2   1
 Wave function symmetry:    1

 ITERATION    DDIFF          GRAD             ENERGY        2-EL.EN.            DIPOLE MOMENTS         DIIS
    1      0.000D+00      0.000D+00      -263.66183352    379.040230    1.18088    0.00000    0.00000    0
    2      0.000D+00      0.885D-02      -263.72686230    374.357803    0.72546    0.00000    0.00000    1
    3      0.142D-01      0.599D-02      -263.76957973    376.926554    0.83584    0.00000    0.00000    2
    4      0.585D-02      0.568D-03      -263.77007470    376.719537    0.83899    0.00000    0.00000    3
    5      0.696D-03      0.166D-03      -263.77013283    376.718630    0.83398    0.00000    0.00000    4
    6      0.259D-03      0.671D-04      -263.77014009    376.733824    0.83475    0.00000    0.00000    5
    7      0.860D-04      0.163D-04      -263.77014082    376.725333    0.83433    0.00000    0.00000    6
    8      0.281D-04      0.359D-05      -263.77014087    376.726649    0.83434    0.00000    0.00000    7
    9      0.768D-05      0.121D-05      -263.77014087    376.726442    0.83431    0.00000    0.00000    0

 Final occupancy:   8   5   2   1

 !RHF STATE 1.1 Energy               -263.770140873694
 Nuclear energy                        91.57043517
 One-electron energy                 -543.70379713
 Two-electron energy                  188.36322108
 Virial quotient                       -1.00183474
 !RHF STATE 1.1 Dipole moment           0.83430835     0.00000000     0.00000000
 Dipole moment /Debye                   2.12046141     0.00000000     0.00000000

 Orbital energies:

         1.1          2.1          3.1          4.1          5.1          6.1          7.1          8.1          9.1         10.1
    -20.644053   -20.570399   -11.453073    -1.521708    -1.355838    -0.792215    -0.705561    -0.587958     0.027682     0.058428

         1.2          2.2          3.2          4.2          5.2          6.2          7.2
    -20.644098    -1.468667    -0.734512    -0.535473    -0.513298     0.085228     0.152406

         1.3          2.3          3.3          4.3
     -0.720278    -0.705908     0.046061     0.083516

         1.4          2.4          3.4
     -0.535637     0.169217     0.264488


 **********************************************************************************************************************************
 DATASETS  * FILE   NREC   LENGTH (MB)   RECORD NAMES
              1      18        3.25       500      610      700      900      950      970     1000      129      960     1100   
                                          VAR    BASINP    GEOM    SYMINP    ZMAT    AOBASIS   BASIS     P2S    ABASIS      S 
                                         1400     1410     1200     1210     1080     1600     1650     1700   
                                           T        V       H0       H01     AOSYM     SMH    MOLCAS    OPER   

              2       3        0.67       700     1000     2100   
                                         GEOM     BASIS     RHF  

 PROGRAMS   *        TOTAL        HF       INT
 CPU TIMES  *         6.26      1.41      4.78
 REAL TIME  *         6.92 SEC
 DISK USED  *         1.00 GB      
 SF USED    *         0.06 MB      
 GA USED    *         0.00 MB       (max)       0.00 MB       (current)
 **********************************************************************************************************************************


1PROGRAM * CCSD (Closed-shell coupled cluster)     Authors: C. Hampel, H.-J. Werner, 1991, M. Deegan, P.J. Knowles, 1992

                                  CCSD-F12 implementation by  H.-J. Werner, 2007

                   Density fitting integral evaluation by F.R. Manby, 2003,2007, G. Knizia, 2010

 Basis set CC-PVTZ/JKFIT generated.      Number of basis functions:   376 
 Basis set AUG-CC-PVTZ/MP2FIT generated. Number of basis functions:   516 

 Convergence thresholds:  THRVAR = 1.00D-08  THRDEN = 1.00D-06

 CCSD(T)     terms to be evaluated (factor= 1.000)


 Number of core orbitals:           4 (   3   1   0   0 )
 Number of closed-shell orbitals:  12 (   5   4   2   1 )
 Number of external orbitals:     214 (  76  54  52  32 )

 Molecular orbitals read from record     2100.2  Type=RHF/CANONICAL (state 1.1)

 MP2-F12 correlation treatment (H.-J. Werner, 2006)
 --------------------------------------------------

 Using MP2-F12 with ansatz 3C(FIX)

 Using projected zeroth-order Hamiltonian (+Z)

 FOCKRIB=T FOCKRIC=T FOCKRIP=T CABSP=T CABSA=T CABSK=T CABSF=T GBC=F EBC=F DMAT=T NOFIK=T NOPAO=1 SOLVE=-1  USEPAO=0
 EXCH_A= T EXCH_B= F EXCH_C= F EXCH_P= F
 
 Geminal basis:    OPTFULL  GEM_TYPE=SLATER  BETA=1.0  NGEM=6

 Optimizing Gaussian exponents for each gem_beta

 Geminal optimization for beta= 1.0000
 Weight function:   m=0, omega= 1.4646

 Augmented Hessian optimization of geminal fit. Trust ratio= 0.40000
 Convergence reached after   2 iterations. Final gradient= 8.24D-16, Step= 4.32D-06, Delta= 1.28D-09
 
 Alpha:                 0.19532     0.81920     2.85917     9.50073    35.69989   197.79328
 Coeff:                 0.27070     0.30552     0.18297     0.10986     0.06810     0.04224
 

 Symmetry turned off. Reference energy:       -263.770140873694

 All pairs explicitly correlated. Number of r12-pairs:           78
 
 AO(A)-basis ORBITAL           loaded. Number of functions:     230
 RI(R)-basis CC-PVTZ/JKFIT     loaded. Number of functions:     376
 DF-basis CC-PVTZ/JKFIT        loaded. Number of functions:     376

 Screening thresholds:   THRAO=  1.00D-10  THRMO=  1.00D-09  THRPROD=  1.00D-09
                         THRSW=  1.00D-05  THROV=  1.00D-12  THRF12=   1.00D-08

 CPU time for Fock operators                      0.99 sec
 
 Construction of ABS:
 Smallest eigenvalue of S          2.57E-04  (threshold= 1.00E-08)
 Ratio eigmin/eigmax               1.83E-06  (threshold= 1.00E-09)
 Smallest eigenvalue of S kept     2.57E-04  (threshold= 2.57E-04, 0 functions deleted, 376 kept)
 
 Construction of CABS:
 Smallest eigenvalue of S          2.30E-08  (threshold= 1.00E-08)
 Ratio eigmin/eigmax               2.30E-08  (threshold= 1.00E-09)
 Smallest eigenvalue of S kept     2.30E-08  (threshold= 2.30E-08, 0 functions deleted, 376 kept)
 
 CPU time for CABS singles                        0.17 sec

 CABS-singles contribution of  -0.01592103 patched into reference energy.
 New reference energy        -263.78606190
 
 AO(A)-basis ORBITAL           loaded. Number of functions:     230
 RI(R)-basis CC-PVTZ/JKFIT     loaded. Number of functions:     376
 DF-basis AUG-CC-PVTZ/MP2FIT   loaded. Number of functions:     516

 Screening thresholds:   THRAO=  1.00D-10  THRMO=  1.00D-09  THRPROD=  1.00D-09
                         THRSW=  1.00D-05  THROV=  1.00D-12  THRF12=   1.00D-08

 CPU time for 3-index integral evaluation         2.69 sec
 CPU time for first  half transformation          0.16 sec (17686.5 MFLOP/sec)
 CPU time for second half transformation          0.02 sec ( 5410.4 MFLOP/sec)
 CPU time for sorting                             0.14 sec
 CPU time for fitting                             0.08 sec (17413.1 MFLOP/sec)
 CPU time for tilde quantities                    0.06 sec (30814.7 MFLOP/sec)
 CPU time for assembly                            0.79 sec (29313.3 MFLOP/sec)
 CPU time for tranop_f12                          0.93 sec (32419.2 MFLOP/sec)
 CPU time for f12 integrals (total)               6.95 sec
 F12-matrices built in  3 passes.
 F12-matrices built in  3 passes.
 F12-matrices built in  3 passes.
 F12-matrices built in  3 passes.
 FC-matrix built in  3 passes.
 CPU time for f12 matrices (total)                0.50 sec

 Diagonal F12 approximation with fixed coefficients:  TSING= 0.500,  TTRIP= 0.250 (scaled by -1/beta)

 DF-MP2-F12 energy corrections:
 ------------------------------
 Approx.                                    Singlet             Triplet             Total
 DF-MP2-F12/3*C(DX,FIX)                -0.097431626625     -0.016931205828     -0.114362832453
 DF-MP2-F12/3*C(FIX)                   -0.079851400672     -0.013394158671     -0.093245559343
 DF-MP2-F12/3C(FIX)                    -0.080213679206     -0.013418262649     -0.093631941855

 DF-MP2-F12 correlation energies:
 --------------------------------
 Approx.                                    Singlet             Triplet             Ecorr            Total Energy
 DF-MP2                                -0.537711167944     -0.343122270402     -0.880833438346   -264.666895343188
 DF-MP2-F12/3*C(DX,FIX)                -0.635142794570     -0.360053476230     -0.995196270799   -264.781258175641
 DF-MP2-F12/3*C(FIX)                   -0.617562568616     -0.356516429072     -0.974078997689   -264.760140902531
 DF-MP2-F12/3C(FIX)                    -0.617924847151     -0.356540533051     -0.974465380201   -264.760527285044

 SCS-DF-MP2 energies (F_SING= 1.20000  F_TRIP= 0.62222  F_PARALLEL= 0.33333):
 ----------------------------------------------------------------------------
 SCS-DF-MP2                            -0.858751703116   -264.644813607959
 SCS-DF-MP2-F12/3*C(DX,FIX)            -0.986204627582   -264.772266532424
 SCS-DF-MP2-F12/3*C(FIX)               -0.962907527096   -264.748969431938
 SCS-DF-MP2-F12/3C(FIX)                -0.963357259368   -264.749419164210

 Symmetry restored.
 Symmetry transformation completed.

 Number of N-1 electron functions:              12
 Number of N-2 electron functions:              78
 Number of singly external CSFs:               732
 Number of doubly external CSFs:            836016
 Total number of CSFs:                      836749

 Pair and operator lists are different

 Length of J-op  integral file:             462.26 MB
 Length of K-op  integral file:             502.03 MB
 Length of 3-ext integral record:             0.00 MB

 Memory could be reduced to 38.69 Mwords without degradation in triples

 Integral transformation finished. Total CPU:   1.40 sec, npass=  1  Memory used:   6.07 MW

 Reference energy:                   -263.78606190

 Adding F12 terms to K(Cij), methodcc=6,  factor=1.0

 ITER.      SQ.NORM     CORR.ENERGY   TOTAL ENERGY   ENERGY CHANGE        DEN1      VAR(S)    VAR(P)  DIIS     TIME
   1      1.20213155    -0.86279307  -264.64885498     0.01805646     0.04666703  0.72D-02  0.56D-02  1  1    11.31
   2      1.21643971    -0.85857709  -264.64463900     0.00421598    -0.02014244  0.87D-04  0.59D-03  2  2    12.28
   3      1.22180415    -0.85867566  -264.64473757    -0.00009857    -0.00236575  0.13D-03  0.32D-04  3  3    13.25
   4      1.22460857    -0.85854810  -264.64461000     0.00012756    -0.00141189  0.76D-05  0.41D-05  4  4    14.22
   5      1.22563935    -0.85851048  -264.64457239     0.00003762    -0.00036631  0.56D-06  0.29D-06  5  5    15.20
   6      1.22580168    -0.85848361  -264.64454551     0.00002688    -0.00000806  0.40D-07  0.24D-07  6  6    16.19
   7      1.22583109    -0.85848119  -264.64454309     0.00000242    -0.00000622  0.26D-08  0.40D-08  6  4    17.16
   8      1.22583140    -0.85848069  -264.64454260     0.00000049     0.00000194  0.39D-09  0.27D-09  6  1    18.14
   9      1.22583201    -0.85848076  -264.64454267    -0.00000007     0.00000056  0.26D-10  0.21D-10  6  2    19.12

 Norm of t1 vector:      0.10599699      S-energy:    -0.00000003      T1 diagnostic:  0.01529935
                                                                       D1 diagnostic:  0.04502125

 Adding energy correction from Wij-K(Fij), methodcc=6  factor=1.0
 
  CCSD correlation energy              -0.858480761209
  MP2-F12 correction (uncoupled)       -0.092474180774
  C*T doubles correction               -0.001474768413
  f12b correction                       0.015405751776


 Total CPU time for triples:     26.34 sec


 RESULTS
 =======

  Reference energy                   -263.770140873694
  F12 singles correction               -0.015921031148

 F12 singles corrections added to reference energy

  New reference energy               -263.786061904842

  F12a singlet correction              -0.080412525523
  F12a triplet correction              -0.013536423665
  F12a total correction                -0.093948949188

 F12a corrections for ansatz F12/3C(FIX) added to CCSD energy
 
  CCSD-F12a singlet pair energy        -0.641857076200
  CCSD-F12a triplet pair energy        -0.310572605229
  CCSD-F12a correlation energy         -0.952429710397

  Triples (T) contribution             -0.037648822851
  Total correlation energy             -0.990078533248

  CCSD-F12a total energy             -264.738491615239
  CCSD[T]-F12a energy                -264.778682129207
  CCSD-T-F12a energy                 -264.775204177304
 !CCSD(T)-F12a total energy          -264.776140438090

 F12b corrections for ansatz F12/3C(FIX) added to CCSD(T)-F12a energy

  CCSD-F12b singlet pair energy        -0.627674731653
  CCSD-F12b triplet pair energy        -0.309349198001
  CCSD-F12b correlation energy         -0.937023958621

  Triples (T) contribution             -0.037648822851
  Total correlation energy             -0.974672781472

  CCSD-F12b total energy             -264.723085863463
  CCSD[T]-F12b energy                -264.763276377431
  CCSD-T-F12b energy                 -264.759798425528
 !CCSD(T)-F12b total energy          -264.760734686314

 Timing summary (sec):

 STEP                 CPU(USER)    SYS     CPU(TOT)    WALL
 Transformation          1.41      0.22      1.63      1.63
 CCSD iterations         8.74      0.83      9.57      9.56
 Triples                26.34      1.30     27.64     27.65
 MP2-F12                 8.98      1.09     10.07     10.07
 F12b energy             0.60      0.05      0.65      0.64

 Program statistics:

 Available memory in ccsd:                99998934
 Min. memory needed in ccsd:               2244783
 Max. memory used in ccsd:                 3005571
 Max. memory used in cckext:               2769663 (10 integral passes)



 **********************************************************************************************************************************
 DATASETS  * FILE   NREC   LENGTH (MB)   RECORD NAMES
              1      20      137.19       500      610      700      900      950      970     1000      129      960     1100   
                                          VAR    BASINP    GEOM    SYMINP    ZMAT    AOBASIS   BASIS     P2S    ABASIS      S 
                                         1400     1410     1200     1210     1080     1600     1650     1700      960(1)  1380   
                                           T        V       H0       H01     AOSYM     SMH    MOLCAS    OPER    ABASIS    JKOP   

              2       5        0.97       700     1000     2100     7360     7350   
                                         GEOM     BASIS     RHF    F12ABS    EF12   

 PROGRAMS   *        TOTAL   CCSD(T)        HF       INT
 CPU TIMES  *        52.35     46.09      1.41      4.78
 REAL TIME  *        56.71 SEC
 DISK USED  *         1.23 GB      
 SF USED    *         1.34 GB      
 GA USED    *         2.40 MB       (max)       0.00 MB       (current)
 **********************************************************************************************************************************

     CCSD(T)-F12        HF-SCF  
   -264.76073469   -263.77014087
 **********************************************************************************************************************************
 Variable memory released
