
 Primary working directories    : /scratch/kee
 Secondary working directories  : /scratch/kee
 Wavefunction directory         : /home/kee/wfu/
 Main file repository           : /scratch/kee/

 ARCHNAME  : Linux/x86_64
 FC        : /opt/intel/composer_xe_2015.0.090/bin/intel64/ifort
 FCVERSION : 15.0.0
 BLASLIB   : -L/opt/intel/mkl/lib/intel64 -lmkl_intel_ilp64 -lmkl_sequential -lmkl_core
 id        : emory

 Nodes     nprocs
 node7        3
 Number of processes for MPI-2 version of Molpro:   nprocs(total)=    4   nprocs(compute)=    3   nprocs(helper)=    1
 ga_uses_ma=false, calling ma_init with nominal heap.
 GA-space will be limited to   8.0 MW (determined by -G option)

 Using customized tuning parameters: mindgm=7; mindgv=32; mindgc=1; mindgr=1; noblas=0; mincuda=1000; minvec=7
 default implementation of scratch files=sf  

 ***,co2h2o
 memory,100,m
 basis avtz
 geomtype = xyz
 geometry = {
 6
       0.00000000
 O     0.00351000    1.16210700    0.00000000
 O     0.00351000   -1.16210700    0.00000000
 O     4.31968000    0.00000000    0.00000000
 H     4.90589800    0.00000000    0.75853100
 H     4.90589800    0.00000000   -0.75853100
 C     0.01968000    0.00000000    0.00000000
 }
 hf
 ccsd(t)-f12
 ---

 Variables initialized (665), CPU time= 0.00 sec
 Commands  initialized (462), CPU time= 0.01 sec, 486 directives.
 Default parameters read. Elapsed time= 0.04 sec

 Checking input...
 Passed
1


                                         ***  PROGRAM SYSTEM MOLPRO  ***
                         Copyright, University College Cardiff Consultants Limited, 2008

                                    Version 2010.1 linked 9 Dec 2014 15:06:28 


 **********************************************************************************************************************************
 LABEL *   co2h2o                                                                        
 Linux-2.6.32-504.el6.x86_64/node7(x86_64) 64 bit mpp version                            DATE: 12-Dec-16          TIME: 14:48:29  
 **********************************************************************************************************************************

 Patch level:      19
 **********************************************************************************************************************************

 Variable memory set to  100000000 words,  buffer space   230000 words

 SETTING BASIS          =    AVTZ
 SETTING GEOMTYPE       =    XYZ

Geometry recognized as XYZ



 Recomputing integrals since basis changed


 Using spherical harmonics

 Library entry O      S aug-cc-pVTZ          selected for orbital group  1
 Library entry O      P aug-cc-pVTZ          selected for orbital group  1
 Library entry O      D aug-cc-pVTZ          selected for orbital group  1
 Library entry O      F aug-cc-pVTZ          selected for orbital group  1
 Library entry H      S aug-cc-pVTZ          selected for orbital group  2
 Library entry H      P aug-cc-pVTZ          selected for orbital group  2
 Library entry H      D aug-cc-pVTZ          selected for orbital group  2
 Library entry C      S aug-cc-pVTZ          selected for orbital group  3
 Library entry C      P aug-cc-pVTZ          selected for orbital group  3
 Library entry C      D aug-cc-pVTZ          selected for orbital group  3
 Library entry C      F aug-cc-pVTZ          selected for orbital group  3

1PROGRAM * SEWARD (Integral evaluation for generally contracted gaussian basis sets)     Author: Roland Lindh, 1990

 Geometry written to block  1 of record 700


 Point group  C2v 



 ATOMIC COORDINATES

 NR  ATOM    CHARGE       X              Y              Z

   1  O       8.00    0.006632939    2.196063965    0.000000000
   2  O       8.00    0.006632939   -2.196063965    0.000000000
   3  O       8.00    8.163012175    0.000000000    0.000000000
   4  H       1.00    9.270803649    0.000000000    1.433415852
   5  H       1.00    9.270803649    0.000000000   -1.433415852
   6  C       6.00    0.037189810    0.000000000    0.000000000

 Bond lengths in Bohr (Angstrom)

 1-6  2.196276545  2-6  2.196276545  3-4  1.811596797  3-5  1.811596797
     (1.162219492)     (1.162219492)     (0.958655737)     (0.958655737)

 Bond angles

  1-6-2  178.40563223   4-3-5  104.60391356

 NUCLEAR CHARGE:                   32
 NUMBER OF PRIMITIVE AOS:         322
 NUMBER OF SYMMETRY AOS:          282
 NUMBER OF CONTRACTIONS:          230   (  84A1  +  59B1  +  54B2  +  33A2  )
 NUMBER OF CORE ORBITALS:           4   (   3A1  +   1B1  +   0B2  +   0A2  )
 NUMBER OF VALENCE ORBITALS:       18   (   8A1  +   5B1  +   4B2  +   1A2  )


 NUCLEAR REPULSION ENERGY   93.13113754


 Eigenvalues of metric

         1 0.359E-03 0.367E-03 0.896E-03 0.162E-02 0.297E-02 0.320E-02 0.370E-02 0.420E-02
         2 0.348E-03 0.919E-03 0.175E-02 0.329E-02 0.548E-02 0.739E-02 0.166E-01 0.208E-01
         3 0.389E-03 0.165E-02 0.317E-02 0.464E-02 0.620E-02 0.969E-02 0.135E-01 0.149E-01
         4 0.348E-02 0.124E-01 0.296E-01 0.362E-01 0.559E-01 0.679E-01 0.110E+00 0.140E+00


 Contracted 2-electron integrals neglected if value below      1.0D-11
 AO integral compression algorithm  1   Integral accuracy      1.0D-11

     294.650 MB (compressed) written to integral file ( 33.0%)

     Node minimum: 88.343 MB, node maximum: 109.576 MB


 NUMBER OF SORTED TWO-ELECTRON INTEGRALS:   29979201.     BUFFER LENGTH:  32768
 NUMBER OF SEGMENTS:   2  SEGMENT LENGTH:   15996954      RECORD LENGTH: 524288

 Memory used in sort:      16.55 MW

 SORT1 READ   111555100. AND WROTE    21119639. INTEGRALS IN     62 RECORDS. CPU TIME:     2.26 SEC, REAL TIME:     2.54 SEC
 SORT2 READ    63575549. AND WROTE    89930217. INTEGRALS IN   1011 RECORDS. CPU TIME:     0.58 SEC, REAL TIME:     0.79 SEC

 Node minimum:    29974277.  Node maximum:    29979201. integrals

 OPERATOR DM      FOR CENTER  0  COORDINATES:    0.000000    0.000000    0.000000


 **********************************************************************************************************************************
 DATASETS  * FILE   NREC   LENGTH (MB)   RECORD NAMES
              1      18        3.23       500      610      700      900      950      970     1000      129      960     1100   
                                          VAR    BASINP    GEOM    SYMINP    ZMAT    AOBASIS   BASIS     P2S    ABASIS      S 
                                         1400     1410     1200     1210     1080     1600     1650     1700   
                                           T        V       H0       H01     AOSYM     SMH    MOLCAS    OPER   

 PROGRAMS   *        TOTAL       INT
 CPU TIMES  *         4.96      4.89
 REAL TIME  *         5.60 SEC
 DISK USED  *         1.05 GB      
 GA USED    *         0.00 MB       (max)       0.00 MB       (current)
 **********************************************************************************************************************************

1PROGRAM * RHF-SCF (CLOSED SHELL)       Authors: W. Meyer, H.-J. Werner


 NUMBER OF ELECTRONS:      16+   16-
 CONVERGENCE THRESHOLDS:    1.00E-05 (Density)    1.00E-07 (Energy)
 MAX. NUMBER OF ITERATIONS:       60
 INTERPOLATION TYPE:            DIIS
 INTERPOLATION STEPS:              2 (START)      1 (STEP)
 LEVEL SHIFTS:                  0.00 (CLOSED)  0.00 (OPEN) 



 Orbital guess generated from atomic densities. Full valence occupancy:   11   6   4   1

 Molecular orbital dump at record        2100.2

 Initial alpha occupancy:   8   5   2   1
 Initial beta  occupancy:   8   5   2   1
 Wave function symmetry:    1

 ITERATION    DDIFF          GRAD             ENERGY        2-EL.EN.            DIPOLE MOMENTS         DIIS
    1      0.000D+00      0.000D+00      -263.66229705    382.217825    1.18117    0.00000    0.00000    0
    2      0.000D+00      0.884D-02      -263.72724121    377.521653    0.73599    0.00000    0.00000    1
    3      0.142D-01      0.598D-02      -263.76977545    380.088355    0.84315    0.00000    0.00000    2
    4      0.584D-02      0.568D-03      -263.77027037    379.882840    0.84623    0.00000    0.00000    3
    5      0.696D-03      0.166D-03      -263.77032854    379.881129    0.84133    0.00000    0.00000    4
    6      0.259D-03      0.672D-04      -263.77033583    379.896516    0.84212    0.00000    0.00000    5
    7      0.862D-04      0.163D-04      -263.77033656    379.888000    0.84170    0.00000    0.00000    6
    8      0.281D-04      0.359D-05      -263.77033661    379.889320    0.84172    0.00000    0.00000    7
    9      0.768D-05      0.121D-05      -263.77033661    379.889110    0.84169    0.00000    0.00000    0

 Final occupancy:   8   5   2   1

 !RHF STATE 1.1 Energy               -263.770336608399
 Nuclear energy                        93.13113754
 One-electron energy                 -546.84602917
 Two-electron energy                  189.94455502
 Virial quotient                       -1.00183679
 !RHF STATE 1.1 Dipole moment           0.84168711     0.00000000     0.00000000
 Dipole moment /Debye                   2.13921512     0.00000000     0.00000000

 Orbital energies:

         1.1          2.1          3.1          4.1          5.1          6.1          7.1          8.1          9.1         10.1
    -20.642784   -20.571045   -11.451863    -1.520440    -1.356499    -0.791016    -0.704241    -0.588758     0.027460     0.059423

         1.2          2.2          3.2          4.2          5.2          6.2          7.2
    -20.642830    -1.467412    -0.733331    -0.534238    -0.513962     0.085652     0.154935

         1.3          2.3          3.3          4.3
     -0.720937    -0.704677     0.045988     0.084539

         1.4          2.4          3.4
     -0.534429     0.169404     0.264883


 **********************************************************************************************************************************
 DATASETS  * FILE   NREC   LENGTH (MB)   RECORD NAMES
              1      18        3.25       500      610      700      900      950      970     1000      129      960     1100   
                                          VAR    BASINP    GEOM    SYMINP    ZMAT    AOBASIS   BASIS     P2S    ABASIS      S 
                                         1400     1410     1200     1210     1080     1600     1650     1700   
                                           T        V       H0       H01     AOSYM     SMH    MOLCAS    OPER   

              2       3        0.67       700     1000     2100   
                                         GEOM     BASIS     RHF  

 PROGRAMS   *        TOTAL        HF       INT
 CPU TIMES  *         6.36      1.40      4.89
 REAL TIME  *         7.10 SEC
 DISK USED  *         1.07 GB      
 SF USED    *         0.06 MB      
 GA USED    *         0.00 MB       (max)       0.00 MB       (current)
 **********************************************************************************************************************************


1PROGRAM * CCSD (Closed-shell coupled cluster)     Authors: C. Hampel, H.-J. Werner, 1991, M. Deegan, P.J. Knowles, 1992

                                  CCSD-F12 implementation by  H.-J. Werner, 2007

                   Density fitting integral evaluation by F.R. Manby, 2003,2007, G. Knizia, 2010

 Basis set CC-PVTZ/JKFIT generated.      Number of basis functions:   376 
 Basis set AUG-CC-PVTZ/MP2FIT generated. Number of basis functions:   516 

 Convergence thresholds:  THRVAR = 1.00D-08  THRDEN = 1.00D-06

 CCSD(T)     terms to be evaluated (factor= 1.000)


 Number of core orbitals:           4 (   3   1   0   0 )
 Number of closed-shell orbitals:  12 (   5   4   2   1 )
 Number of external orbitals:     214 (  76  54  52  32 )

 Molecular orbitals read from record     2100.2  Type=RHF/CANONICAL (state 1.1)

 MP2-F12 correlation treatment (H.-J. Werner, 2006)
 --------------------------------------------------

 Using MP2-F12 with ansatz 3C(FIX)

 Using projected zeroth-order Hamiltonian (+Z)

 FOCKRIB=T FOCKRIC=T FOCKRIP=T CABSP=T CABSA=T CABSK=T CABSF=T GBC=F EBC=F DMAT=T NOFIK=T NOPAO=1 SOLVE=-1  USEPAO=0
 EXCH_A= T EXCH_B= F EXCH_C= F EXCH_P= F
 
 Geminal basis:    OPTFULL  GEM_TYPE=SLATER  BETA=1.0  NGEM=6

 Optimizing Gaussian exponents for each gem_beta

 Geminal optimization for beta= 1.0000
 Weight function:   m=0, omega= 1.4646

 Augmented Hessian optimization of geminal fit. Trust ratio= 0.40000
 Convergence reached after   2 iterations. Final gradient= 8.24D-16, Step= 4.32D-06, Delta= 1.28D-09
 
 Alpha:                 0.19532     0.81920     2.85917     9.50073    35.69989   197.79328
 Coeff:                 0.27070     0.30552     0.18297     0.10986     0.06810     0.04224
 

 Symmetry turned off. Reference energy:       -263.770336608399

 All pairs explicitly correlated. Number of r12-pairs:           78
 
 AO(A)-basis ORBITAL           loaded. Number of functions:     230
 RI(R)-basis CC-PVTZ/JKFIT     loaded. Number of functions:     376
 DF-basis CC-PVTZ/JKFIT        loaded. Number of functions:     376

 Screening thresholds:   THRAO=  1.00D-10  THRMO=  1.00D-09  THRPROD=  1.00D-09
                         THRSW=  1.00D-05  THROV=  1.00D-12  THRF12=   1.00D-08

 CPU time for Fock operators                      0.95 sec
 
 Construction of ABS:
 Smallest eigenvalue of S          2.57E-04  (threshold= 1.00E-08)
 Ratio eigmin/eigmax               1.83E-06  (threshold= 1.00E-09)
 Smallest eigenvalue of S kept     2.57E-04  (threshold= 2.57E-04, 0 functions deleted, 376 kept)
 
 Construction of CABS:
 Smallest eigenvalue of S          2.29E-08  (threshold= 1.00E-08)
 Ratio eigmin/eigmax               2.29E-08  (threshold= 1.00E-09)
 Smallest eigenvalue of S kept     2.29E-08  (threshold= 2.29E-08, 0 functions deleted, 376 kept)
 
 CPU time for CABS singles                        0.17 sec

 CABS-singles contribution of  -0.01592232 patched into reference energy.
 New reference energy        -263.78625893
 
 AO(A)-basis ORBITAL           loaded. Number of functions:     230
 RI(R)-basis CC-PVTZ/JKFIT     loaded. Number of functions:     376
 DF-basis AUG-CC-PVTZ/MP2FIT   loaded. Number of functions:     516

 Screening thresholds:   THRAO=  1.00D-10  THRMO=  1.00D-09  THRPROD=  1.00D-09
                         THRSW=  1.00D-05  THROV=  1.00D-12  THRF12=   1.00D-08

 CPU time for 3-index integral evaluation         2.70 sec
 CPU time for first  half transformation          0.30 sec (10440.2 MFLOP/sec)
 CPU time for second half transformation          0.02 sec ( 5656.3 MFLOP/sec)
 CPU time for sorting                             0.15 sec
 CPU time for fitting                             0.04 sec (34826.3 MFLOP/sec)
 CPU time for tilde quantities                    0.07 sec (26412.6 MFLOP/sec)
 CPU time for assembly                            0.81 sec (27682.4 MFLOP/sec)
 CPU time for tranop_f12                          0.94 sec (31381.2 MFLOP/sec)
 CPU time for f12 integrals (total)               7.12 sec
 F12-matrices built in  3 passes.
 F12-matrices built in  3 passes.
 F12-matrices built in  3 passes.
 F12-matrices built in  3 passes.
 FC-matrix built in  3 passes.
 CPU time for f12 matrices (total)                0.48 sec

 Diagonal F12 approximation with fixed coefficients:  TSING= 0.500,  TTRIP= 0.250 (scaled by -1/beta)

 DF-MP2-F12 energy corrections:
 ------------------------------
 Approx.                                    Singlet             Triplet             Total
 DF-MP2-F12/3*C(DX,FIX)                -0.097422390061     -0.016930872388     -0.114353262448
 DF-MP2-F12/3*C(FIX)                   -0.079844055970     -0.013394728839     -0.093238784809
 DF-MP2-F12/3C(FIX)                    -0.080206603048     -0.013419257926     -0.093625860974

 DF-MP2-F12 correlation energies:
 --------------------------------
 Approx.                                    Singlet             Triplet             Ecorr            Total Energy
 DF-MP2                                -0.537713951565     -0.343159529446     -0.880873481011   -264.667132411012
 DF-MP2-F12/3*C(DX,FIX)                -0.635136341626     -0.360090401834     -0.995226743460   -264.781485673460
 DF-MP2-F12/3*C(FIX)                   -0.617558007535     -0.356554258285     -0.974112265820   -264.760371195821
 DF-MP2-F12/3C(FIX)                    -0.617920554614     -0.356578787372     -0.974499341985   -264.760758271986

 SCS-DF-MP2 energies (F_SING= 1.20000  F_TRIP= 0.62222  F_PARALLEL= 0.33333):
 ----------------------------------------------------------------------------
 SCS-DF-MP2                            -0.858778226867   -264.645037156868
 SCS-DF-MP2-F12/3*C(DX,FIX)            -0.986219859981   -264.772478789982
 SCS-DF-MP2-F12/3*C(FIX)               -0.962925591975   -264.749184521976
 SCS-DF-MP2-F12/3C(FIX)                -0.963375911012   -264.749634841013

 Symmetry restored.
 Symmetry transformation completed.

 Number of N-1 electron functions:              12
 Number of N-2 electron functions:              78
 Number of singly external CSFs:               732
 Number of doubly external CSFs:            836016
 Total number of CSFs:                      836749

 Pair and operator lists are different

 Length of J-op  integral file:             462.26 MB
 Length of K-op  integral file:             502.03 MB
 Length of 3-ext integral record:             0.00 MB

 Memory could be reduced to 38.69 Mwords without degradation in triples

 Integral transformation finished. Total CPU:   1.48 sec, npass=  1  Memory used:   6.07 MW

 Reference energy:                   -263.78625893

 Adding F12 terms to K(Cij), methodcc=6,  factor=1.0

 ITER.      SQ.NORM     CORR.ENERGY   TOTAL ENERGY   ENERGY CHANGE        DEN1      VAR(S)    VAR(P)  DIIS     TIME
   1      1.20213331    -0.86283256  -264.64909149     0.01805689     0.04666136  0.72D-02  0.56D-02  1  1    11.54
   2      1.21644134    -0.85862040  -264.64487933     0.00421216    -0.02014039  0.87D-04  0.59D-03  2  2    12.52
   3      1.22180746    -0.85871987  -264.64497880    -0.00009947    -0.00236628  0.13D-03  0.32D-04  3  3    13.51
   4      1.22461297    -0.85859238  -264.64485131     0.00012750    -0.00141212  0.76D-05  0.41D-05  4  4    14.53
   5      1.22564413    -0.85855478  -264.64481371     0.00003760    -0.00036629  0.56D-06  0.29D-06  5  5    15.55
   6      1.22580655    -0.85852790  -264.64478683     0.00002688    -0.00000807  0.40D-07  0.24D-07  6  6    16.58
   7      1.22583599    -0.85852548  -264.64478441     0.00000242    -0.00000623  0.26D-08  0.40D-08  6  4    17.59
   8      1.22583631    -0.85852499  -264.64478392     0.00000049     0.00000194  0.39D-09  0.27D-09  6  1    18.59
   9      1.22583692    -0.85852505  -264.64478398    -0.00000007     0.00000056  0.26D-10  0.22D-10  6  2    19.59

 Norm of t1 vector:      0.10601465      S-energy:    -0.00000003      T1 diagnostic:  0.01530190
                                                                       D1 diagnostic:  0.04504902

 Adding energy correction from Wij-K(Fij), methodcc=6  factor=1.0
 
  CCSD correlation energy              -0.858525051409
  MP2-F12 correction (uncoupled)       -0.092469024760
  C*T doubles correction               -0.001473633810
  f12b correction                       0.015405311350


 Total CPU time for triples:     24.32 sec


 RESULTS
 =======

  Reference energy                   -263.770336608399
  F12 singles correction               -0.015922321602

 F12 singles corrections added to reference energy

  New reference energy               -263.786258930000

  F12a singlet correction              -0.080405410315
  F12a triplet correction              -0.013537248255
  F12a total correction                -0.093942658570

 F12a corrections for ansatz F12/3C(FIX) added to CCSD energy
 
  CCSD-F12a singlet pair energy        -0.641848475809
  CCSD-F12a triplet pair energy        -0.310619204214
  CCSD-F12a correlation energy         -0.952467709979

  Triples (T) contribution             -0.037657416805
  Total correlation energy             -0.990125126784

  CCSD-F12a total energy             -264.738726639980
  CCSD[T]-F12a energy                -264.778925402097
  CCSD-T-F12a energy                 -264.775448160054
 !CCSD(T)-F12a total energy          -264.776384056785

 F12b corrections for ansatz F12/3C(FIX) added to CCSD(T)-F12a energy

  CCSD-F12b singlet pair energy        -0.627666684048
  CCSD-F12b triplet pair energy        -0.309395684625
  CCSD-F12b correlation energy         -0.937062398630

  Triples (T) contribution             -0.037657416805
  Total correlation energy             -0.974719815435

  CCSD-F12b total energy             -264.723321328630
  CCSD[T]-F12b energy                -264.763520090747
  CCSD-T-F12b energy                 -264.760042848704
 !CCSD(T)-F12b total energy          -264.760978745435

 Timing summary (sec):

 STEP                 CPU(USER)    SYS     CPU(TOT)    WALL
 Transformation          1.49      0.21      1.70      1.69
 CCSD iterations         8.97      0.69      9.66     10.43
 Triples                24.32      0.77     25.09     25.08
 MP2-F12                 9.13      1.19     10.32     10.32
 F12b energy             0.61      0.02      0.63      0.63

 Program statistics:

 Available memory in ccsd:                99998934
 Min. memory needed in ccsd:               2244783
 Max. memory used in ccsd:                 3005571
 Max. memory used in cckext:               2769663 (10 integral passes)



 **********************************************************************************************************************************
 DATASETS  * FILE   NREC   LENGTH (MB)   RECORD NAMES
              1      20      137.19       500      610      700      900      950      970     1000      129      960     1100   
                                          VAR    BASINP    GEOM    SYMINP    ZMAT    AOBASIS   BASIS     P2S    ABASIS      S 
                                         1400     1410     1200     1210     1080     1600     1650     1700      960(1)  1380   
                                           T        V       H0       H01     AOSYM     SMH    MOLCAS    OPER    ABASIS    JKOP   

              2       5        0.97       700     1000     2100     7360     7350   
                                         GEOM     BASIS     RHF    F12ABS    EF12   

 PROGRAMS   *        TOTAL   CCSD(T)        HF       INT
 CPU TIMES  *        51.01     44.64      1.40      4.89
 REAL TIME  *        55.49 SEC
 DISK USED  *         1.29 GB      
 SF USED    *         1.34 GB      
 GA USED    *         2.40 MB       (max)       0.00 MB       (current)
 **********************************************************************************************************************************

     CCSD(T)-F12        HF-SCF  
   -264.76097875   -263.77033661
 **********************************************************************************************************************************
 Variable memory released
