
 Primary working directories    : /scratch/kee
 Secondary working directories  : /scratch/kee
 Wavefunction directory         : /home/kee/wfu/
 Main file repository           : /scratch/kee/

 ARCHNAME  : Linux/x86_64
 FC        : /opt/intel/composer_xe_2015.0.090/bin/intel64/ifort
 FCVERSION : 15.0.0
 BLASLIB   : -L/opt/intel/mkl/lib/intel64 -lmkl_intel_ilp64 -lmkl_sequential -lmkl_core
 id        : emory

 Nodes     nprocs
 node7        3
 Number of processes for MPI-2 version of Molpro:   nprocs(total)=    4   nprocs(compute)=    3   nprocs(helper)=    1
 ga_uses_ma=false, calling ma_init with nominal heap.
 GA-space will be limited to   8.0 MW (determined by -G option)

 Using customized tuning parameters: mindgm=7; mindgv=32; mindgc=1; mindgr=1; noblas=0; mincuda=1000; minvec=7
 default implementation of scratch files=sf  

 ***,co2h2o
 memory,100,m
 basis avtz
 geomtype = xyz
 geometry = {
 6
       0.00000000
 O     0.00351000    1.16210700    0.00000000
 O     0.00351000   -1.16210700    0.00000000
 O     4.51968000    0.00000000    0.00000000
 H     5.10589800    0.00000000    0.75853100
 H     5.10589800    0.00000000   -0.75853100
 C     0.01968000    0.00000000    0.00000000
 }
 hf
 ccsd(t)-f12
 ---

 Variables initialized (665), CPU time= 0.01 sec
 Commands  initialized (462), CPU time= 0.00 sec, 486 directives.
 Default parameters read. Elapsed time= 0.04 sec

 Checking input...
 Passed
1


                                         ***  PROGRAM SYSTEM MOLPRO  ***
                         Copyright, University College Cardiff Consultants Limited, 2008

                                    Version 2010.1 linked 9 Dec 2014 15:06:28 


 **********************************************************************************************************************************
 LABEL *   co2h2o                                                                        
 Linux-2.6.32-504.el6.x86_64/node7(x86_64) 64 bit mpp version                            DATE: 12-Dec-16          TIME: 14:52:17  
 **********************************************************************************************************************************

 Patch level:      19
 **********************************************************************************************************************************

 Variable memory set to  100000000 words,  buffer space   230000 words

 SETTING BASIS          =    AVTZ
 SETTING GEOMTYPE       =    XYZ

Geometry recognized as XYZ



 Recomputing integrals since basis changed


 Using spherical harmonics

 Library entry O      S aug-cc-pVTZ          selected for orbital group  1
 Library entry O      P aug-cc-pVTZ          selected for orbital group  1
 Library entry O      D aug-cc-pVTZ          selected for orbital group  1
 Library entry O      F aug-cc-pVTZ          selected for orbital group  1
 Library entry H      S aug-cc-pVTZ          selected for orbital group  2
 Library entry H      P aug-cc-pVTZ          selected for orbital group  2
 Library entry H      D aug-cc-pVTZ          selected for orbital group  2
 Library entry C      S aug-cc-pVTZ          selected for orbital group  3
 Library entry C      P aug-cc-pVTZ          selected for orbital group  3
 Library entry C      D aug-cc-pVTZ          selected for orbital group  3
 Library entry C      F aug-cc-pVTZ          selected for orbital group  3

1PROGRAM * SEWARD (Integral evaluation for generally contracted gaussian basis sets)     Author: Roland Lindh, 1990

 Geometry written to block  1 of record 700


 Point group  C2v 



 ATOMIC COORDINATES

 NR  ATOM    CHARGE       X              Y              Z

   1  O       8.00    0.006632939    2.196063965    0.000000000
   2  O       8.00    0.006632939   -2.196063965    0.000000000
   3  O       8.00    8.540957402    0.000000000    0.000000000
   4  H       1.00    9.648748875    0.000000000    1.433415852
   5  H       1.00    9.648748875    0.000000000   -1.433415852
   6  C       6.00    0.037189810    0.000000000    0.000000000

 Bond lengths in Bohr (Angstrom)

 1-6  2.196276545  2-6  2.196276545  3-4  1.811596797  3-5  1.811596797
     (1.162219492)     (1.162219492)     (0.958655737)     (0.958655737)

 Bond angles

  1-6-2  178.40563223   4-3-5  104.60391356

 NUCLEAR CHARGE:                   32
 NUMBER OF PRIMITIVE AOS:         322
 NUMBER OF SYMMETRY AOS:          282
 NUMBER OF CONTRACTIONS:          230   (  84A1  +  59B1  +  54B2  +  33A2  )
 NUMBER OF CORE ORBITALS:           4   (   3A1  +   1B1  +   0B2  +   0A2  )
 NUMBER OF VALENCE ORBITALS:       18   (   8A1  +   5B1  +   4B2  +   1A2  )


 NUCLEAR REPULSION ENERGY   92.06958819


 Eigenvalues of metric

         1 0.362E-03 0.372E-03 0.897E-03 0.164E-02 0.305E-02 0.320E-02 0.380E-02 0.422E-02
         2 0.348E-03 0.920E-03 0.175E-02 0.332E-02 0.554E-02 0.742E-02 0.170E-01 0.209E-01
         3 0.389E-03 0.165E-02 0.317E-02 0.473E-02 0.620E-02 0.979E-02 0.135E-01 0.151E-01
         4 0.348E-02 0.124E-01 0.296E-01 0.363E-01 0.560E-01 0.679E-01 0.110E+00 0.140E+00


 Contracted 2-electron integrals neglected if value below      1.0D-11
 AO integral compression algorithm  1   Integral accuracy      1.0D-11

     282.591 MB (compressed) written to integral file ( 31.7%)

     Node minimum: 92.275 MB, node maximum: 95.683 MB


 NUMBER OF SORTED TWO-ELECTRON INTEGRALS:   29979201.     BUFFER LENGTH:  32768
 NUMBER OF SEGMENTS:   2  SEGMENT LENGTH:   15996954      RECORD LENGTH: 524288

 Memory used in sort:      16.55 MW

 SORT1 READ   111555100. AND WROTE    20215053. INTEGRALS IN     58 RECORDS. CPU TIME:     2.24 SEC, REAL TIME:     2.47 SEC
 SORT2 READ    60836561. AND WROTE    89930217. INTEGRALS IN   1056 RECORDS. CPU TIME:     0.59 SEC, REAL TIME:     0.77 SEC

 Node minimum:    29974277.  Node maximum:    29979201. integrals

 OPERATOR DM      FOR CENTER  0  COORDINATES:    0.000000    0.000000    0.000000


 **********************************************************************************************************************************
 DATASETS  * FILE   NREC   LENGTH (MB)   RECORD NAMES
              1      18        3.23       500      610      700      900      950      970     1000      129      960     1100   
                                          VAR    BASINP    GEOM    SYMINP    ZMAT    AOBASIS   BASIS     P2S    ABASIS      S 
                                         1400     1410     1200     1210     1080     1600     1650     1700   
                                           T        V       H0       H01     AOSYM     SMH    MOLCAS    OPER   

 PROGRAMS   *        TOTAL       INT
 CPU TIMES  *         4.92      4.85
 REAL TIME  *         5.47 SEC
 DISK USED  *       997.88 MB      
 GA USED    *         0.00 MB       (max)       0.00 MB       (current)
 **********************************************************************************************************************************

1PROGRAM * RHF-SCF (CLOSED SHELL)       Authors: W. Meyer, H.-J. Werner


 NUMBER OF ELECTRONS:      16+   16-
 CONVERGENCE THRESHOLDS:    1.00E-05 (Density)    1.00E-07 (Energy)
 MAX. NUMBER OF ITERATIONS:       60
 INTERPOLATION TYPE:            DIIS
 INTERPOLATION STEPS:              2 (START)      1 (STEP)
 LEVEL SHIFTS:                  0.00 (CLOSED)  0.00 (OPEN) 



 Orbital guess generated from atomic densities. Full valence occupancy:   11   6   4   1

 Molecular orbital dump at record        2100.2

 Initial alpha occupancy:   8   5   2   1
 Initial beta  occupancy:   8   5   2   1
 Wave function symmetry:    1

 ITERATION    DDIFF          GRAD             ENERGY        2-EL.EN.            DIPOLE MOMENTS         DIIS
    1      0.000D+00      0.000D+00      -263.66197304    380.056308    1.18095    0.00000    0.00000    0
    2      0.000D+00      0.885D-02      -263.72697659    375.369384    0.72867    0.00000    0.00000    1
    3      0.142D-01      0.599D-02      -263.76963876    377.937609    0.83806    0.00000    0.00000    2
    4      0.584D-02      0.568D-03      -263.77013371    377.731043    0.84120    0.00000    0.00000    3
    5      0.696D-03      0.166D-03      -263.77019186    377.729891    0.83622    0.00000    0.00000    4
    6      0.259D-03      0.671D-04      -263.77019913    377.745144    0.83700    0.00000    0.00000    5
    7      0.861D-04      0.163D-04      -263.77019986    377.736645    0.83657    0.00000    0.00000    6
    8      0.281D-04      0.359D-05      -263.77019990    377.737962    0.83659    0.00000    0.00000    7
    9      0.768D-05      0.121D-05      -263.77019991    377.737754    0.83656    0.00000    0.00000    0

 Final occupancy:   8   5   2   1

 !RHF STATE 1.1 Energy               -263.770199907360
 Nuclear energy                        92.06958819
 One-electron energy                 -544.70866535
 Two-electron energy                  188.86887725
 Virial quotient                       -1.00183539
 !RHF STATE 1.1 Dipole moment           0.83655642     0.00000000     0.00000000
 Dipole moment /Debye                   2.12617506     0.00000000     0.00000000

 Orbital energies:

         1.1          2.1          3.1          4.1          5.1          6.1          7.1          8.1          9.1         10.1
    -20.643657   -20.570596   -11.452694    -1.521312    -1.356039    -0.791840    -0.705148    -0.588201     0.027618     0.058754

         1.2          2.2          3.2          4.2          5.2          6.2          7.2
    -20.643702    -1.468275    -0.734142    -0.535086    -0.513502     0.085373     0.153207

         1.3          2.3          3.3          4.3
     -0.720479    -0.705523     0.046038     0.083851

         1.4          2.4          3.4
     -0.535259     0.169283     0.264596


 **********************************************************************************************************************************
 DATASETS  * FILE   NREC   LENGTH (MB)   RECORD NAMES
              1      18        3.25       500      610      700      900      950      970     1000      129      960     1100   
                                          VAR    BASINP    GEOM    SYMINP    ZMAT    AOBASIS   BASIS     P2S    ABASIS      S 
                                         1400     1410     1200     1210     1080     1600     1650     1700   
                                           T        V       H0       H01     AOSYM     SMH    MOLCAS    OPER   

              2       3        0.67       700     1000     2100   
                                         GEOM     BASIS     RHF  

 PROGRAMS   *        TOTAL        HF       INT
 CPU TIMES  *         6.29      1.36      4.85
 REAL TIME  *         6.94 SEC
 DISK USED  *         1.02 GB      
 SF USED    *         0.06 MB      
 GA USED    *         0.00 MB       (max)       0.00 MB       (current)
 **********************************************************************************************************************************


1PROGRAM * CCSD (Closed-shell coupled cluster)     Authors: C. Hampel, H.-J. Werner, 1991, M. Deegan, P.J. Knowles, 1992

                                  CCSD-F12 implementation by  H.-J. Werner, 2007

                   Density fitting integral evaluation by F.R. Manby, 2003,2007, G. Knizia, 2010

 Basis set CC-PVTZ/JKFIT generated.      Number of basis functions:   376 
 Basis set AUG-CC-PVTZ/MP2FIT generated. Number of basis functions:   516 

 Convergence thresholds:  THRVAR = 1.00D-08  THRDEN = 1.00D-06

 CCSD(T)     terms to be evaluated (factor= 1.000)


 Number of core orbitals:           4 (   3   1   0   0 )
 Number of closed-shell orbitals:  12 (   5   4   2   1 )
 Number of external orbitals:     214 (  76  54  52  32 )

 Molecular orbitals read from record     2100.2  Type=RHF/CANONICAL (state 1.1)

 MP2-F12 correlation treatment (H.-J. Werner, 2006)
 --------------------------------------------------

 Using MP2-F12 with ansatz 3C(FIX)

 Using projected zeroth-order Hamiltonian (+Z)

 FOCKRIB=T FOCKRIC=T FOCKRIP=T CABSP=T CABSA=T CABSK=T CABSF=T GBC=F EBC=F DMAT=T NOFIK=T NOPAO=1 SOLVE=-1  USEPAO=0
 EXCH_A= T EXCH_B= F EXCH_C= F EXCH_P= F
 
 Geminal basis:    OPTFULL  GEM_TYPE=SLATER  BETA=1.0  NGEM=6

 Optimizing Gaussian exponents for each gem_beta

 Geminal optimization for beta= 1.0000
 Weight function:   m=0, omega= 1.4646

 Augmented Hessian optimization of geminal fit. Trust ratio= 0.40000
 Convergence reached after   2 iterations. Final gradient= 8.24D-16, Step= 4.32D-06, Delta= 1.28D-09
 
 Alpha:                 0.19532     0.81920     2.85917     9.50073    35.69989   197.79328
 Coeff:                 0.27070     0.30552     0.18297     0.10986     0.06810     0.04224
 

 Symmetry turned off. Reference energy:       -263.770199907361

 All pairs explicitly correlated. Number of r12-pairs:           78
 
 AO(A)-basis ORBITAL           loaded. Number of functions:     230
 RI(R)-basis CC-PVTZ/JKFIT     loaded. Number of functions:     376
 DF-basis CC-PVTZ/JKFIT        loaded. Number of functions:     376

 Screening thresholds:   THRAO=  1.00D-10  THRMO=  1.00D-09  THRPROD=  1.00D-09
                         THRSW=  1.00D-05  THROV=  1.00D-12  THRF12=   1.00D-08

 CPU time for Fock operators                      0.92 sec
 
 Construction of ABS:
 Smallest eigenvalue of S          2.57E-04  (threshold= 1.00E-08)
 Ratio eigmin/eigmax               1.83E-06  (threshold= 1.00E-09)
 Smallest eigenvalue of S kept     2.57E-04  (threshold= 2.57E-04, 0 functions deleted, 376 kept)
 
 Construction of CABS:
 Smallest eigenvalue of S          2.30E-08  (threshold= 1.00E-08)
 Ratio eigmin/eigmax               2.30E-08  (threshold= 1.00E-09)
 Smallest eigenvalue of S kept     2.30E-08  (threshold= 2.30E-08, 0 functions deleted, 376 kept)
 
 CPU time for CABS singles                        0.16 sec

 CABS-singles contribution of  -0.01592135 patched into reference energy.
 New reference energy        -263.78612126
 
 AO(A)-basis ORBITAL           loaded. Number of functions:     230
 RI(R)-basis CC-PVTZ/JKFIT     loaded. Number of functions:     376
 DF-basis AUG-CC-PVTZ/MP2FIT   loaded. Number of functions:     516

 Screening thresholds:   THRAO=  1.00D-10  THRMO=  1.00D-09  THRPROD=  1.00D-09
                         THRSW=  1.00D-05  THROV=  1.00D-12  THRF12=   1.00D-08

 CPU time for 3-index integral evaluation         2.59 sec
 CPU time for first  half transformation          0.27 sec (10015.5 MFLOP/sec)
 CPU time for second half transformation          0.03 sec ( 3699.2 MFLOP/sec)
 CPU time for sorting                             0.14 sec
 CPU time for fitting                             0.06 sec (23217.5 MFLOP/sec)
 CPU time for tilde quantities                    0.05 sec (36977.6 MFLOP/sec)
 CPU time for assembly                            0.79 sec (29541.9 MFLOP/sec)
 CPU time for tranop_f12                          0.96 sec (31556.1 MFLOP/sec)
 CPU time for f12 integrals (total)               6.94 sec
 F12-matrices built in  3 passes.
 F12-matrices built in  3 passes.
 F12-matrices built in  3 passes.
 F12-matrices built in  3 passes.
 FC-matrix built in  3 passes.
 CPU time for f12 matrices (total)                0.49 sec

 Diagonal F12 approximation with fixed coefficients:  TSING= 0.500,  TTRIP= 0.250 (scaled by -1/beta)

 DF-MP2-F12 energy corrections:
 ------------------------------
 Approx.                                    Singlet             Triplet             Total
 DF-MP2-F12/3*C(DX,FIX)                -0.097428865677     -0.016931027442     -0.114359893119
 DF-MP2-F12/3*C(FIX)                   -0.079849228616     -0.013394218252     -0.093243446868
 DF-MP2-F12/3C(FIX)                    -0.080211660655     -0.013418461635     -0.093630122290

 DF-MP2-F12 correlation energies:
 --------------------------------
 Approx.                                    Singlet             Triplet             Ecorr            Total Energy
 DF-MP2                                -0.537711492654     -0.343132405929     -0.880843898582   -264.666965155951
 DF-MP2-F12/3*C(DX,FIX)                -0.635140358330     -0.360063433371     -0.995203791701   -264.781325049070
 DF-MP2-F12/3*C(FIX)                   -0.617560721270     -0.356526624181     -0.974087345451   -264.760208602819
 DF-MP2-F12/3C(FIX)                    -0.617923153308     -0.356550867564     -0.974474020872   -264.760595278241

 SCS-DF-MP2 energies (F_SING= 1.20000  F_TRIP= 0.62222  F_PARALLEL= 0.33333):
 ----------------------------------------------------------------------------
 SCS-DF-MP2                            -0.858758399318   -264.644879656687
 SCS-DF-MP2-F12/3*C(DX,FIX)            -0.986207899649   -264.772329157018
 SCS-DF-MP2-F12/3*C(FIX)               -0.962911653903   -264.749032911272
 SCS-DF-MP2-F12/3C(FIX)                -0.963361657121   -264.749482914490

 Symmetry restored.
 Symmetry transformation completed.

 Number of N-1 electron functions:              12
 Number of N-2 electron functions:              78
 Number of singly external CSFs:               732
 Number of doubly external CSFs:            836016
 Total number of CSFs:                      836749

 Pair and operator lists are different

 Length of J-op  integral file:             462.26 MB
 Length of K-op  integral file:             502.03 MB
 Length of 3-ext integral record:             0.00 MB

 Memory could be reduced to 38.69 Mwords without degradation in triples

 Integral transformation finished. Total CPU:   1.42 sec, npass=  1  Memory used:   6.07 MW

 Reference energy:                   -263.78612126

 Adding F12 terms to K(Cij), methodcc=6,  factor=1.0

 ITER.      SQ.NORM     CORR.ENERGY   TOTAL ENERGY   ENERGY CHANGE        DEN1      VAR(S)    VAR(P)  DIIS     TIME
   1      1.20213172    -0.86280355  -264.64892481     0.01805641     0.04666500  0.72D-02  0.56D-02  1  1    11.25
   2      1.21643975    -0.85858877  -264.64471003     0.00421478    -0.02014172  0.87D-04  0.59D-03  2  2    12.24
   3      1.22180469    -0.85868762  -264.64480888    -0.00009885    -0.00236593  0.13D-03  0.32D-04  3  3    13.23
   4      1.22460942    -0.85856008  -264.64468134     0.00012754    -0.00141195  0.76D-05  0.41D-05  4  4    14.21
   5      1.22564031    -0.85852247  -264.64464373     0.00003761    -0.00036630  0.56D-06  0.29D-06  5  5    15.21
   6      1.22580268    -0.85849559  -264.64461685     0.00002688    -0.00000806  0.40D-07  0.24D-07  6  6    16.20
   7      1.22583209    -0.85849317  -264.64461443     0.00000242    -0.00000622  0.26D-08  0.40D-08  6  4    17.20
   8      1.22583240    -0.85849268  -264.64461394     0.00000049     0.00000194  0.39D-09  0.27D-09  6  1    18.20
   9      1.22583302    -0.85849275  -264.64461400    -0.00000007     0.00000056  0.26D-10  0.21D-10  6  2    19.20

 Norm of t1 vector:      0.10600193      S-energy:    -0.00000003      T1 diagnostic:  0.01530006
                                                                       D1 diagnostic:  0.04502922

 Adding energy correction from Wij-K(Fij), methodcc=6  factor=1.0
 
  CCSD correlation energy              -0.858492746751
  MP2-F12 correction (uncoupled)       -0.092472430678
  C*T doubles correction               -0.001474503816
  f12b correction                       0.015405608446


 Total CPU time for triples:     25.64 sec


 RESULTS
 =======

  Reference energy                   -263.770199907361
  F12 singles correction               -0.015921350008

 F12 singles corrections added to reference energy

  New reference energy               -263.786121257369

  F12a singlet correction              -0.080410382187
  F12a triplet correction              -0.013536552307
  F12a total correction                -0.093946934494

 F12a corrections for ansatz F12/3C(FIX) added to CCSD energy
 
  CCSD-F12a singlet pair energy        -0.641854208712
  CCSD-F12a triplet pair energy        -0.310585443285
  CCSD-F12a correlation energy         -0.952439681244

  Triples (T) contribution             -0.037651116922
  Total correlation energy             -0.990090798167

  CCSD-F12a total energy             -264.738560938613
  CCSD[T]-F12a energy                -264.778753623900
  CCSD-T-F12a energy                 -264.775275909794
 !CCSD(T)-F12a total energy          -264.776212055535

 F12b corrections for ansatz F12/3C(FIX) added to CCSD(T)-F12a energy

  CCSD-F12b singlet pair energy        -0.627672034031
  CCSD-F12b triplet pair energy        -0.309362009520
  CCSD-F12b correlation energy         -0.937034072799

  Triples (T) contribution             -0.037651116922
  Total correlation energy             -0.974685189721

  CCSD-F12b total energy             -264.723155330167
  CCSD[T]-F12b energy                -264.763348015454
  CCSD-T-F12b energy                 -264.759870301348
 !CCSD(T)-F12b total energy          -264.760806447090

 Timing summary (sec):

 STEP                 CPU(USER)    SYS     CPU(TOT)    WALL
 Transformation          1.43      0.22      1.65      1.65
 CCSD iterations         8.89      0.67      9.56      9.55
 Triples                25.64      0.83     26.47     26.44
 MP2-F12                 8.89      1.08      9.97      9.97
 F12b energy             0.60      0.01      0.61      0.63

 Program statistics:

 Available memory in ccsd:                99998934
 Min. memory needed in ccsd:               2244783
 Max. memory used in ccsd:                 3005571
 Max. memory used in cckext:               2769663 (10 integral passes)



 **********************************************************************************************************************************
 DATASETS  * FILE   NREC   LENGTH (MB)   RECORD NAMES
              1      20      137.19       500      610      700      900      950      970     1000      129      960     1100   
                                          VAR    BASINP    GEOM    SYMINP    ZMAT    AOBASIS   BASIS     P2S    ABASIS      S 
                                         1400     1410     1200     1210     1080     1600     1650     1700      960(1)  1380   
                                           T        V       H0       H01     AOSYM     SMH    MOLCAS    OPER    ABASIS    JKOP   

              2       5        0.97       700     1000     2100     7360     7350   
                                         GEOM     BASIS     RHF    F12ABS    EF12   

 PROGRAMS   *        TOTAL   CCSD(T)        HF       INT
 CPU TIMES  *        51.76     45.47      1.36      4.85
 REAL TIME  *        55.41 SEC
 DISK USED  *         1.24 GB      
 SF USED    *         1.34 GB      
 GA USED    *         2.40 MB       (max)       0.00 MB       (current)
 **********************************************************************************************************************************

     CCSD(T)-F12        HF-SCF  
   -264.76080645   -263.77019991
 **********************************************************************************************************************************
 Variable memory released
