
 Primary working directories    : /scratch/kee
 Secondary working directories  : /scratch/kee
 Wavefunction directory         : /home/kee/wfu/
 Main file repository           : /scratch/kee/

 ARCHNAME  : Linux/x86_64
 FC        : /opt/intel/composer_xe_2015.0.090/bin/intel64/ifort
 FCVERSION : 15.0.0
 BLASLIB   : -L/opt/intel/mkl/lib/intel64 -lmkl_intel_ilp64 -lmkl_sequential -lmkl_core
 id        : emory

 Nodes     nprocs
 node23       3
 Number of processes for MPI-2 version of Molpro:   nprocs(total)=    4   nprocs(compute)=    3   nprocs(helper)=    1
 ga_uses_ma=false, calling ma_init with nominal heap.
 GA-space will be limited to   8.0 MW (determined by -G option)

 Using customized tuning parameters: mindgm=7; mindgv=32; mindgc=1; mindgr=1; noblas=0; mincuda=1000; minvec=7
 default implementation of scratch files=sf  

 ***,co2h2o
 memory,100,m
 basis avtz
 geomtype = xyz
 geometry = {
 6
       0.00000000
 O     0.02747900    1.16001200    0.00000000
 O    -0.00936500   -1.16396300    0.00000000
 O    14.27525441   -0.05951663    0.00000000
 H    14.66434941    0.38175737    0.75746400
 H    14.66434941    0.38175737   -0.75746400
 C     0.02536600   -0.00312200    0.00000000
 }
 hf
 ccsd(t)-f12
 ---

 Variables initialized (665), CPU time= 0.01 sec
 Commands  initialized (462), CPU time= 0.01 sec, 486 directives.
 Default parameters read. Elapsed time= 0.05 sec

 Checking input...
 Passed
1


                                         ***  PROGRAM SYSTEM MOLPRO  ***
                         Copyright, University College Cardiff Consultants Limited, 2008

                                    Version 2010.1 linked 9 Dec 2014 15:06:28 


 **********************************************************************************************************************************
 LABEL *   co2h2o                                                                        
 Linux-2.6.32-504.el6.x86_64/node23(x86_64) 64 bit mpp version                           DATE: 14-Dec-16          TIME: 23:53:27  
 **********************************************************************************************************************************

 Patch level:      19
 **********************************************************************************************************************************

 Variable memory set to  100000000 words,  buffer space   230000 words

 SETTING BASIS          =    AVTZ
 SETTING GEOMTYPE       =    XYZ

Geometry recognized as XYZ



 Recomputing integrals since basis changed


 Using spherical harmonics

 Library entry O      S aug-cc-pVTZ          selected for orbital group  1
 Library entry O      P aug-cc-pVTZ          selected for orbital group  1
 Library entry O      D aug-cc-pVTZ          selected for orbital group  1
 Library entry O      F aug-cc-pVTZ          selected for orbital group  1
 Library entry H      S aug-cc-pVTZ          selected for orbital group  2
 Library entry H      P aug-cc-pVTZ          selected for orbital group  2
 Library entry H      D aug-cc-pVTZ          selected for orbital group  2
 Library entry C      S aug-cc-pVTZ          selected for orbital group  3
 Library entry C      P aug-cc-pVTZ          selected for orbital group  3
 Library entry C      D aug-cc-pVTZ          selected for orbital group  3
 Library entry C      F aug-cc-pVTZ          selected for orbital group  3

1PROGRAM * SEWARD (Integral evaluation for generally contracted gaussian basis sets)     Author: Roland Lindh, 1990

 Geometry written to block  1 of record 700


 Point group  Cs  



 ATOMIC COORDINATES

 NR  ATOM    CHARGE       X              Y              Z

   1  O       8.00    0.051927784    2.192104989    0.000000000
   2  O       8.00   -0.017697285   -2.199571297    0.000000000
   3  O       8.00   26.976321291   -0.112470131    0.000000000
   4  H       1.00   27.711604280    0.721416878    1.431399514
   5  H       1.00   27.711604280    0.721416878   -1.431399514
   6  C       6.00    0.047934793   -0.005899725    0.000000000

 Bond lengths in Bohr (Angstrom)

 1-6  2.198008341  2-6  2.194653170  3-4  1.812432947  3-5  1.812432947
     (1.163135919)     (1.161360439)     (0.959098208)     (0.959098208)

 Bond angles

  1-6-2  178.39037465   4-3-5  104.32746287

 NUCLEAR CHARGE:                   32
 NUMBER OF PRIMITIVE AOS:         322
 NUMBER OF SYMMETRY AOS:          282
 NUMBER OF CONTRACTIONS:          230   ( 143A'  +  87A"  )
 NUMBER OF CORE ORBITALS:           4   (   4A'  +   0A"  )
 NUMBER OF VALENCE ORBITALS:       18   (  13A'  +   5A"  )


 NUCLEAR REPULSION ENERGY   75.55540561


 Eigenvalues of metric

         1 0.349E-03 0.386E-03 0.420E-03 0.903E-03 0.922E-03 0.175E-02 0.186E-02 0.317E-02
         2 0.395E-03 0.167E-02 0.318E-02 0.348E-02 0.509E-02 0.622E-02 0.100E-01 0.125E-01


 Contracted 2-electron integrals neglected if value below      1.0D-11
 AO integral compression algorithm  1   Integral accuracy      1.0D-11

     238.813 MB (compressed) written to integral file ( 35.8%)

     Node minimum: 69.992 MB, node maximum: 90.178 MB


 NUMBER OF SORTED TWO-ELECTRON INTEGRALS:   59530350.     BUFFER LENGTH:  32768
 NUMBER OF SEGMENTS:   4  SEGMENT LENGTH:   15999984      RECORD LENGTH: 524288

 Memory used in sort:      16.56 MW

 SORT1 READ    83363816. AND WROTE    15868381. INTEGRALS IN     47 RECORDS. CPU TIME:     1.13 SEC, REAL TIME:     1.31 SEC
 SORT2 READ    47544722. AND WROTE   178576926. INTEGRALS IN    900 RECORDS. CPU TIME:     0.61 SEC, REAL TIME:     0.78 SEC

 Node minimum:    59520934.  Node maximum:    59530350. integrals

 OPERATOR DM      FOR CENTER  0  COORDINATES:    0.000000    0.000000    0.000000


 **********************************************************************************************************************************
 DATASETS  * FILE   NREC   LENGTH (MB)   RECORD NAMES
              1      18        3.71       500      610      700      900      950      970     1000      129      960     1100   
                                          VAR    BASINP    GEOM    SYMINP    ZMAT    AOBASIS   BASIS     P2S    ABASIS      S 
                                         1400     1410     1200     1210     1080     1600     1650     1700   
                                           T        V       H0       H01     AOSYM     SMH    MOLCAS    OPER   

 PROGRAMS   *        TOTAL       INT
 CPU TIMES  *         3.78      3.68
 REAL TIME  *         4.32 SEC
 DISK USED  *       809.32 MB      
 GA USED    *         0.00 MB       (max)       0.00 MB       (current)
 **********************************************************************************************************************************

1PROGRAM * RHF-SCF (CLOSED SHELL)       Authors: W. Meyer, H.-J. Werner


 NUMBER OF ELECTRONS:      16+   16-
 CONVERGENCE THRESHOLDS:    1.00E-05 (Density)    1.00E-07 (Energy)
 MAX. NUMBER OF ITERATIONS:       60
 INTERPOLATION TYPE:            DIIS
 INTERPOLATION STEPS:              2 (START)      1 (STEP)
 LEVEL SHIFTS:                  0.00 (CLOSED)  0.00 (OPEN) 



 Orbital guess generated from atomic densities. Full valence occupancy:   17   5

 Molecular orbital dump at record        2100.2

 Initial alpha occupancy:  13   3
 Initial beta  occupancy:  13   3
 Wave function symmetry:    1

 ITERATION    DDIFF          GRAD             ENERGY        2-EL.EN.            DIPOLE MOMENTS         DIIS
    1      0.000D+00      0.000D+00      -263.66004528    346.564300    0.79962    0.84407    0.00000    0
    2      0.000D+00      0.643D-02      -263.72539456    342.024991    0.45371    0.49993    0.00000    1
    3      0.103D-01      0.437D-02      -263.76883108    344.582189    0.54161    0.58039    0.00000    2
    4      0.424D-02      0.410D-03      -263.76932649    344.368400    0.54368    0.58461    0.00000    3
    5      0.493D-03      0.119D-03      -263.76938457    344.371798    0.54002    0.57989    0.00000    4
    6      0.185D-03      0.482D-04      -263.76939175    344.386016    0.54044    0.58082    0.00000    5
    7      0.614D-04      0.119D-04      -263.76939248    344.377737    0.54014    0.58031    0.00000    6
    8      0.201D-04      0.264D-05      -263.76939253    344.379014    0.54015    0.58043    0.00000    7
    9      0.547D-05      0.103D-05      -263.76939253    344.378850    0.54013    0.58030    0.00000    0

 Final occupancy:  13   3

 !RHF STATE 1.1 Energy               -263.769392531980
 Nuclear energy                        75.55540561
 One-electron energy                 -511.51422307
 Two-electron energy                  172.18942493
 Virial quotient                       -1.00183200
 !RHF STATE 1.1 Dipole moment           0.54013256     0.58029606     0.00000000
 Dipole moment /Debye                   1.37279011     1.47486885     0.00000000

 Orbital energies:

         1.1          2.1          3.1          4.1          5.1          6.1          7.1          8.1          9.1         10.1
    -20.653007   -20.652456   -20.567732   -11.461529    -1.530357    -1.477245    -1.352904    -0.800609    -0.742831    -0.714411

        11.1         12.1         13.1         14.1         15.1
     -0.585086    -0.544049    -0.510388     0.029295     0.048049

         1.2          2.2          3.2          4.2          5.2
     -0.716592    -0.714420    -0.544069     0.047581     0.073583


 **********************************************************************************************************************************
 DATASETS  * FILE   NREC   LENGTH (MB)   RECORD NAMES
              1      18        3.72       500      610      700      900      950      970     1000      129      960     1100   
                                          VAR    BASINP    GEOM    SYMINP    ZMAT    AOBASIS   BASIS     P2S    ABASIS      S 
                                         1400     1410     1200     1210     1080     1600     1650     1700   
                                           T        V       H0       H01     AOSYM     SMH    MOLCAS    OPER   

              2       3        0.94       700     1000     2100   
                                         GEOM     BASIS     RHF  

 PROGRAMS   *        TOTAL        HF       INT
 CPU TIMES  *         8.22      4.44      3.68
 REAL TIME  *         8.94 SEC
 DISK USED  *       833.15 MB      
 SF USED    *         0.11 MB      
 GA USED    *         0.00 MB       (max)       0.00 MB       (current)
 **********************************************************************************************************************************


1PROGRAM * CCSD (Closed-shell coupled cluster)     Authors: C. Hampel, H.-J. Werner, 1991, M. Deegan, P.J. Knowles, 1992

                                  CCSD-F12 implementation by  H.-J. Werner, 2007

                   Density fitting integral evaluation by F.R. Manby, 2003,2007, G. Knizia, 2010

 Basis set CC-PVTZ/JKFIT generated.      Number of basis functions:   376 
 Basis set AUG-CC-PVTZ/MP2FIT generated. Number of basis functions:   516 

 Convergence thresholds:  THRVAR = 1.00D-08  THRDEN = 1.00D-06

 CCSD(T)     terms to be evaluated (factor= 1.000)


 Number of core orbitals:           4 (   4   0 )
 Number of closed-shell orbitals:  12 (   9   3 )
 Number of external orbitals:     214 ( 130  84 )

 Molecular orbitals read from record     2100.2  Type=RHF/CANONICAL (state 1.1)

 MP2-F12 correlation treatment (H.-J. Werner, 2006)
 --------------------------------------------------

 Using MP2-F12 with ansatz 3C(FIX)

 Using projected zeroth-order Hamiltonian (+Z)

 FOCKRIB=T FOCKRIC=T FOCKRIP=T CABSP=T CABSA=T CABSK=T CABSF=T GBC=F EBC=F DMAT=T NOFIK=T NOPAO=1 SOLVE=-1  USEPAO=0
 EXCH_A= T EXCH_B= F EXCH_C= F EXCH_P= F
 
 Geminal basis:    OPTFULL  GEM_TYPE=SLATER  BETA=1.0  NGEM=6

 Optimizing Gaussian exponents for each gem_beta

 Geminal optimization for beta= 1.0000
 Weight function:   m=0, omega= 1.4646

 Augmented Hessian optimization of geminal fit. Trust ratio= 0.40000
 Convergence reached after   2 iterations. Final gradient= 8.24D-16, Step= 4.32D-06, Delta= 1.28D-09
 
 Alpha:                 0.19532     0.81920     2.85917     9.50073    35.69989   197.79328
 Coeff:                 0.27070     0.30552     0.18297     0.10986     0.06810     0.04224
 

 Symmetry turned off. Reference energy:       -263.769392531980

 All pairs explicitly correlated. Number of r12-pairs:           78
 
 AO(A)-basis ORBITAL           loaded. Number of functions:     230
 RI(R)-basis CC-PVTZ/JKFIT     loaded. Number of functions:     376
 DF-basis CC-PVTZ/JKFIT        loaded. Number of functions:     376

 Screening thresholds:   THRAO=  1.00D-10  THRMO=  1.00D-09  THRPROD=  1.00D-09
                         THRSW=  1.00D-05  THROV=  1.00D-12  THRF12=   1.00D-08

 CPU time for Fock operators                      1.36 sec
 
 Construction of ABS:
 Smallest eigenvalue of S          2.57E-04  (threshold= 1.00E-08)
 Ratio eigmin/eigmax               1.83E-06  (threshold= 1.00E-09)
 Smallest eigenvalue of S kept     2.57E-04  (threshold= 2.57E-04, 0 functions deleted, 376 kept)
 
 Construction of CABS:
 Smallest eigenvalue of S          2.30E-08  (threshold= 1.00E-08)
 Ratio eigmin/eigmax               2.30E-08  (threshold= 1.00E-09)
 Smallest eigenvalue of S kept     2.30E-08  (threshold= 2.30E-08, 0 functions deleted, 376 kept)
 
 CPU time for CABS singles                        0.29 sec

 CABS-singles contribution of  -0.01592224 patched into reference energy.
 New reference energy        -263.78531477
 
 AO(A)-basis ORBITAL           loaded. Number of functions:     230
 RI(R)-basis CC-PVTZ/JKFIT     loaded. Number of functions:     376
 DF-basis AUG-CC-PVTZ/MP2FIT   loaded. Number of functions:     516

 Screening thresholds:   THRAO=  1.00D-10  THRMO=  1.00D-09  THRPROD=  1.00D-09
                         THRSW=  1.00D-05  THROV=  1.00D-12  THRF12=   1.00D-08

 CPU time for 3-index integral evaluation         1.93 sec
 CPU time for first  half transformation          0.28 sec ( 4335.2 MFLOP/sec)
 CPU time for second half transformation          0.04 sec ( 1398.7 MFLOP/sec)
 CPU time for sorting                             0.11 sec
 CPU time for fitting                             0.07 sec (18151.1 MFLOP/sec)
 CPU time for tilde quantities                    0.43 sec ( 4403.8 MFLOP/sec)
 CPU time for assembly                            1.17 sec (19180.2 MFLOP/sec)
 CPU time for tranop_f12                          1.37 sec (19519.0 MFLOP/sec)
 CPU time for f12 integrals (total)               8.22 sec
 F12-matrices built in  3 passes.
 F12-matrices built in  3 passes.
 F12-matrices built in  3 passes.
 F12-matrices built in  3 passes.
 FC-matrix built in  3 passes.
 CPU time for f12 matrices (total)                0.54 sec

 Diagonal F12 approximation with fixed coefficients:  TSING= 0.500,  TTRIP= 0.250 (scaled by -1/beta)

 DF-MP2-F12 energy corrections:
 ------------------------------
 Approx.                                    Singlet             Triplet             Total
 DF-MP2-F12/3*C(DX,FIX)                -0.097445612358     -0.016932793658     -0.114378406016
 DF-MP2-F12/3*C(FIX)                   -0.079860812196     -0.013395141698     -0.093255953894
 DF-MP2-F12/3C(FIX)                    -0.080222288490     -0.013418594910     -0.093640883400

 DF-MP2-F12 correlation energies:
 --------------------------------
 Approx.                                    Singlet             Triplet             Ecorr            Total Energy
 DF-MP2                                -0.537789645845     -0.343110824535     -0.880900470380   -264.666215244687
 DF-MP2-F12/3*C(DX,FIX)                -0.635235258203     -0.360043618193     -0.995278876396   -264.780593650702
 DF-MP2-F12/3*C(FIX)                   -0.617650458041     -0.356505966233     -0.974156424274   -264.759471198581
 DF-MP2-F12/3C(FIX)                    -0.618011934335     -0.356529419445     -0.974541353780   -264.759856128087

 SCS-DF-MP2 energies (F_SING= 1.20000  F_TRIP= 0.62222  F_PARALLEL= 0.33333):
 ----------------------------------------------------------------------------
 SCS-DF-MP2                            -0.858838754725   -264.644153529031
 SCS-DF-MP2-F12/3*C(DX,FIX)            -0.986309450052   -264.771624224359
 SCS-DF-MP2-F12/3*C(FIX)               -0.963006484194   -264.748321258501
 SCS-DF-MP2-F12/3C(FIX)                -0.963454848856   -264.748769623163

 Symmetry restored.
 Symmetry transformation completed.

 Number of N-1 electron functions:              12
 Number of N-2 electron functions:              78
 Number of singly external CSFs:              1422
 Number of doubly external CSFs:           1668984
 Total number of CSFs:                     1670407

 Pair and operator lists are different

 Length of J-op  integral file:             466.33 MB
 Length of K-op  integral file:             525.76 MB
 Length of 3-ext integral record:             0.00 MB

 Memory could be reduced to 76.19 Mwords without degradation in triples

 Integral transformation finished. Total CPU:   4.14 sec, npass=  1  Memory used:  26.50 MW

 Reference energy:                   -263.78531477

 Adding F12 terms to K(Cij), methodcc=6,  factor=1.0

 ITER.      SQ.NORM     CORR.ENERGY   TOTAL ENERGY   ENERGY CHANGE        DEN1      VAR(S)    VAR(P)  DIIS     TIME
   1      1.20220573    -0.86283845  -264.64815323     0.01807844     0.04672787  0.72D-02  0.56D-02  1  1    17.72
   2      1.21652779    -0.85860888  -264.64392366     0.00422957    -0.02016348  0.86D-04  0.59D-03  2  2    20.56
   3      1.22189376    -0.85870521  -264.64401999    -0.00009633    -0.00236639  0.13D-03  0.32D-04  3  3    23.12
   4      1.22469811    -0.85857724  -264.64389201     0.00012798    -0.00141238  0.76D-05  0.41D-05  4  4    25.78
   5      1.22572896    -0.85853954  -264.64385432     0.00003769    -0.00036668  0.56D-06  0.29D-06  5  5    28.64
   6      1.22589122    -0.85851268  -264.64382745     0.00002686    -0.00000806  0.40D-07  0.24D-07  6  6    31.49
   7      1.22592061    -0.85851025  -264.64382502     0.00000243    -0.00000622  0.26D-08  0.40D-08  6  4    34.19
   8      1.22592092    -0.85850976  -264.64382453     0.00000049     0.00000194  0.39D-09  0.27D-09  6  1    37.46
   9      1.22592153    -0.85850982  -264.64382460    -0.00000007     0.00000056  0.26D-10  0.21D-10  6  2    40.74

 Norm of t1 vector:      0.10599814      S-energy:     0.00000001      T1 diagnostic:  0.01529951
                                                                       D1 diagnostic:  0.04494980

 Adding energy correction from Wij-K(Fij), methodcc=6  factor=1.0
 
  CCSD correlation energy              -0.858509824379
  MP2-F12 correction (uncoupled)       -0.092482588542
  C*T doubles correction               -0.001476392397
  f12b correction                       0.015406948655


 Total CPU time for triples:     94.38 sec


 RESULTS
 =======

  Reference energy                   -263.769392531980
  F12 singles correction               -0.015922242327

 F12 singles corrections added to reference energy

  New reference energy               -263.785314774307

  F12a singlet correction              -0.080421952690
  F12a triplet correction              -0.013537028249
  F12a total correction                -0.093958980939

 F12a corrections for ansatz F12/3C(FIX) added to CCSD energy
 
  CCSD-F12a singlet pair energy        -0.641954744279
  CCSD-F12a triplet pair energy        -0.310514069874
  CCSD-F12a correlation energy         -0.952468805318

  Triples (T) contribution             -0.037651026353
  Total correlation energy             -0.990119831671

  CCSD-F12a total energy             -264.737783579624
  CCSD[T]-F12a energy                -264.777980025971
  CCSD-T-F12a energy                 -264.774496258591
 !CCSD(T)-F12a total energy          -264.775434605977

 F12b corrections for ansatz F12/3C(FIX) added to CCSD(T)-F12a energy

  CCSD-F12b singlet pair energy        -0.627771010252
  CCSD-F12b triplet pair energy        -0.309290855247
  CCSD-F12b correlation energy         -0.937061856663

  Triples (T) contribution             -0.037651026353
  Total correlation energy             -0.974712883016

  CCSD-F12b total energy             -264.722376630970
  CCSD[T]-F12b energy                -264.762573077317
  CCSD-T-F12b energy                 -264.759089309936
 !CCSD(T)-F12b total energy          -264.760027657323

 Timing summary (sec):

 STEP                 CPU(USER)    SYS     CPU(TOT)    WALL
 Transformation          4.17      0.58      4.75      4.76
 CCSD iterations        25.55      1.74     27.29     27.29
 Triples                94.38      2.01     96.39     96.36
 MP2-F12                11.04      1.30     12.34     12.34
 F12b energy             1.60      0.03      1.63      1.62

 Program statistics:

 Available memory in ccsd:                99998934
 Min. memory needed in ccsd:               4419579
 Max. memory used in ccsd:                 5922321
 Max. memory used in cckext:               6231049 (10 integral passes)



 **********************************************************************************************************************************
 DATASETS  * FILE   NREC   LENGTH (MB)   RECORD NAMES
              1      20      268.24       500      610      700      900      950      970     1000      129      960     1100   
                                          VAR    BASINP    GEOM    SYMINP    ZMAT    AOBASIS   BASIS     P2S    ABASIS      S 
                                         1400     1410     1200     1210     1080     1600     1650     1700      960(1)  1380   
                                           T        V       H0       H01     AOSYM     SMH    MOLCAS    OPER    ABASIS    JKOP   

              2       5        1.51       700     1000     2100     7360     7350   
                                         GEOM     BASIS     RHF    F12ABS    EF12   

 PROGRAMS   *        TOTAL   CCSD(T)        HF       INT
 CPU TIMES  *       145.05    136.82      4.44      3.68
 REAL TIME  *       151.67 SEC
 DISK USED  *         1.27 GB      
 SF USED    *         1.52 GB      
 GA USED    *         2.40 MB       (max)       0.00 MB       (current)
 **********************************************************************************************************************************

     CCSD(T)-F12        HF-SCF  
   -264.76002766   -263.76939253
 **********************************************************************************************************************************
 Variable memory released
