
 Primary working directories    : /scratch/kee
 Secondary working directories  : /scratch/kee
 Wavefunction directory         : /home/kee/wfu/
 Main file repository           : /scratch/kee/

 ARCHNAME  : Linux/x86_64
 FC        : /opt/intel/composer_xe_2015.0.090/bin/intel64/ifort
 FCVERSION : 15.0.0
 BLASLIB   : -L/opt/intel/mkl/lib/intel64 -lmkl_intel_ilp64 -lmkl_sequential -lmkl_core
 id        : emory

 Nodes     nprocs
 node17       3
 Number of processes for MPI-2 version of Molpro:   nprocs(total)=    4   nprocs(compute)=    3   nprocs(helper)=    1
 ga_uses_ma=false, calling ma_init with nominal heap.
 GA-space will be limited to   8.0 MW (determined by -G option)

 Using customized tuning parameters: mindgm=7; mindgv=32; mindgc=1; mindgr=1; noblas=0; mincuda=1000; minvec=7
 default implementation of scratch files=sf  

 ***,co2h2o
 memory,100,m
 basis avtz
 geomtype = xyz
 geometry = {
 6
       0.00000777
 O    10.97257393   -1.10347931    0.00000000
 O    11.76744404    1.08065151   -0.00000000
 O     3.34356282    0.00000000    0.00000000
 H     2.59556774    0.58340495    0.10287003
 H     4.09598802    0.58686026    0.10347930
 C    11.34356282    0.00000000    0.00000000
 }
 hf
 ccsd(t)-f12
 ---

 Variables initialized (665), CPU time= 0.00 sec
 Commands  initialized (462), CPU time= 0.01 sec, 486 directives.
 Default parameters read. Elapsed time= 0.04 sec

 Checking input...
 Passed
1


                                         ***  PROGRAM SYSTEM MOLPRO  ***
                         Copyright, University College Cardiff Consultants Limited, 2008

                                    Version 2010.1 linked 9 Dec 2014 15:06:28 


 **********************************************************************************************************************************
 LABEL *   co2h2o                                                                        
 Linux-2.6.32-504.el6.x86_64/node17(x86_64) 64 bit mpp version                           DATE: 18-Jan-17          TIME: 20:52:37  
 **********************************************************************************************************************************

 Patch level:      19
 **********************************************************************************************************************************

 Variable memory set to  100000000 words,  buffer space   230000 words

 SETTING BASIS          =    AVTZ
 SETTING GEOMTYPE       =    XYZ

Geometry recognized as XYZ



 Recomputing integrals since basis changed


 Using spherical harmonics

 Library entry O      S aug-cc-pVTZ          selected for orbital group  1
 Library entry O      P aug-cc-pVTZ          selected for orbital group  1
 Library entry O      D aug-cc-pVTZ          selected for orbital group  1
 Library entry O      F aug-cc-pVTZ          selected for orbital group  1
 Library entry H      S aug-cc-pVTZ          selected for orbital group  2
 Library entry H      P aug-cc-pVTZ          selected for orbital group  2
 Library entry H      D aug-cc-pVTZ          selected for orbital group  2
 Library entry C      S aug-cc-pVTZ          selected for orbital group  3
 Library entry C      P aug-cc-pVTZ          selected for orbital group  3
 Library entry C      D aug-cc-pVTZ          selected for orbital group  3
 Library entry C      F aug-cc-pVTZ          selected for orbital group  3

1PROGRAM * SEWARD (Integral evaluation for generally contracted gaussian basis sets)     Author: Roland Lindh, 1990

 Geometry written to block  1 of record 700


 Point group  C1  



 ATOMIC COORDINATES

 NR  ATOM    CHARGE       X              Y              Z

   1  O       8.00   20.735159684   -2.085273688    0.000000000
   2  O       8.00   22.237246502    2.042135397    0.000000000
   3  O       8.00    6.318418033    0.000000000    0.000000000
   4  H       1.00    4.904912184    1.102475579    0.194396184
   5  H       1.00    7.740295595    1.109005169    0.195547537
   6  C       6.00   21.436227084    0.000000000    0.000000000

 Bond lengths in Bohr (Angstrom)

 1-6  2.199968602  2-6  2.193615529  3-4  1.803119814  3-5  1.813799081
     (1.164173245)     (1.160811343)     (0.954169911)     (0.959821135)

 Bond angles

  1-6-2  177.16520951   4-3-5  103.24222917

 NUCLEAR CHARGE:                   32
 NUMBER OF PRIMITIVE AOS:         322
 NUMBER OF SYMMETRY AOS:          282
 NUMBER OF CONTRACTIONS:          230   ( 230A   )
 NUMBER OF CORE ORBITALS:           4   (   4A   )
 NUMBER OF VALENCE ORBITALS:       18   (  18A   )


 NUCLEAR REPULSION ENERGY   81.93113291


 Eigenvalues of metric

         1 0.349E-03 0.368E-03 0.388E-03 0.410E-03 0.902E-03 0.923E-03 0.162E-02 0.175E-02


 Contracted 2-electron integrals neglected if value below      1.0D-11
 AO integral compression algorithm  1   Integral accuracy      1.0D-11

     458.752 MB (compressed) written to integral file ( 17.5%)

     Node minimum: 146.276 MB, node maximum: 164.364 MB


 NUMBER OF SORTED TWO-ELECTRON INTEGRALS:  117629820.     BUFFER LENGTH:  32768
 NUMBER OF SEGMENTS:   8  SEGMENT LENGTH:   15997437      RECORD LENGTH: 524288

 Memory used in sort:      16.55 MW

 SORT1 READ   327127857. AND WROTE    32092797. INTEGRALS IN     95 RECORDS. CPU TIME:     2.87 SEC, REAL TIME:     3.25 SEC
 SORT2 READ    95862287. AND WROTE   352862895. INTEGRALS IN   1674 RECORDS. CPU TIME:     1.06 SEC, REAL TIME:     1.35 SEC

 Node minimum:   117612110.  Node maximum:   117629820. integrals

 OPERATOR DM      FOR CENTER  0  COORDINATES:    0.000000    0.000000    0.000000


 **********************************************************************************************************************************
 DATASETS  * FILE   NREC   LENGTH (MB)   RECORD NAMES
              1      18        4.62       500      610      700      900      950      970     1000      129      960     1100   
                                          VAR    BASINP    GEOM    SYMINP    ZMAT    AOBASIS   BASIS     P2S    ABASIS      S 
                                         1400     1410     1200     1210     1080     1600     1650     1700   
                                           T        V       H0       H01     AOSYM     SMH    MOLCAS    OPER   

 PROGRAMS   *        TOTAL       INT
 CPU TIMES  *         6.95      6.88
 REAL TIME  *         7.79 SEC
 DISK USED  *         1.57 GB      
 GA USED    *         0.00 MB       (max)       0.00 MB       (current)
 **********************************************************************************************************************************

1PROGRAM * RHF-SCF (CLOSED SHELL)       Authors: W. Meyer, H.-J. Werner


 NUMBER OF ELECTRONS:      16+   16-    SPACE SYMMETRY=1    SPIN SYMMETRY=Singlet 
 CONVERGENCE THRESHOLDS:    1.00E-05 (Density)    1.00E-07 (Energy)
 MAX. NUMBER OF ITERATIONS:       60
 INTERPOLATION TYPE:            DIIS
 INTERPOLATION STEPS:              2 (START)      1 (STEP)
 LEVEL SHIFTS:                  0.00 (CLOSED)  0.00 (OPEN) 



 Orbital guess generated from atomic densities. Full valence occupancy:   22

 Molecular orbital dump at record        2100.2

 ITERATION    DDIFF          GRAD             ENERGY        2-EL.EN.            DIPOLE MOMENTS         DIIS
    1      0.000D+00      0.000D+00      -263.65935353    359.215990   -0.06883    1.17032    0.19888    0
    2      0.000D+00      0.469D-02      -263.72489377    354.709803   -0.01244    0.66699    0.11675    1
    3      0.752D-02      0.319D-02      -263.76851419    357.258921   -0.03341    0.79560    0.13639    2
    4      0.310D-02      0.300D-03      -263.76901100    357.045700   -0.03288    0.79732    0.13727    3
    5      0.356D-03      0.875D-04      -263.76906962    357.049066   -0.03241    0.79367    0.13628    4
    6      0.133D-03      0.355D-04      -263.76907692    357.063393   -0.03264    0.79333    0.13643    5
    7      0.444D-04      0.879D-05      -263.76907767    357.055309   -0.03247    0.79347    0.13636    6
    8      0.145D-04      0.221D-05      -263.76907772    357.056305   -0.03261    0.79311    0.13636    7
    9      0.404D-05      0.145D-05      -263.76907772    357.056408   -0.03250    0.79341    0.13636    0

 Final occupancy:  16

 !RHF STATE 1.1 Energy               -263.769077721917
 Nuclear energy                        81.93113291
 One-electron energy                 -524.22841441
 Two-electron energy                  178.52820378
 Virial quotient                       -1.00179854
 !RHF STATE 1.1 Dipole moment          -0.03250032     0.79340859     0.13635763
 Dipole moment /Debye                  -0.08260216     2.01651139     0.34656383

 Orbital energies:

         1.1          2.1          3.1          4.1          5.1          6.1          7.1          8.1          9.1         10.1
    -20.654582   -20.653314   -20.568239   -11.462795    -1.531474    -1.478153    -1.355205    -0.801788    -0.743867    -0.716034

        11.1         12.1         13.1         14.1         15.1         16.1         17.1         18.1
     -0.715489    -0.715483    -0.588007    -0.545168    -0.545122    -0.511283     0.026745     0.040226


 **********************************************************************************************************************************
 DATASETS  * FILE   NREC   LENGTH (MB)   RECORD NAMES
              1      18        4.62       500      610      700      900      950      970     1000      129      960     1100   
                                          VAR    BASINP    GEOM    SYMINP    ZMAT    AOBASIS   BASIS     P2S    ABASIS      S 
                                         1400     1410     1200     1210     1080     1600     1650     1700   
                                           T        V       H0       H01     AOSYM     SMH    MOLCAS    OPER   

              2       3        1.44       700     1000     2100   
                                         GEOM     BASIS     RHF  

 PROGRAMS   *        TOTAL        HF       INT
 CPU TIMES  *        15.86      8.91      6.88
 REAL TIME  *        16.92 SEC
 DISK USED  *         1.61 GB      
 SF USED    *         0.21 MB      
 GA USED    *         0.00 MB       (max)       0.00 MB       (current)
 **********************************************************************************************************************************


1PROGRAM * CCSD (Closed-shell coupled cluster)     Authors: C. Hampel, H.-J. Werner, 1991, M. Deegan, P.J. Knowles, 1992

                                  CCSD-F12 implementation by  H.-J. Werner, 2007

                   Density fitting integral evaluation by F.R. Manby, 2003,2007, G. Knizia, 2010

 Basis set CC-PVTZ/JKFIT generated.      Number of basis functions:   376 
 Basis set AUG-CC-PVTZ/MP2FIT generated. Number of basis functions:   516 

 Convergence thresholds:  THRVAR = 1.00D-08  THRDEN = 1.00D-06

 CCSD(T)     terms to be evaluated (factor= 1.000)


 Number of core orbitals:           4 (   4 )
 Number of closed-shell orbitals:  12 (  12 )
 Number of external orbitals:     214 ( 214 )

 Molecular orbitals read from record     2100.2  Type=RHF/CANONICAL (state 1.1)

 MP2-F12 correlation treatment (H.-J. Werner, 2006)
 --------------------------------------------------

 Using MP2-F12 with ansatz 3C(FIX)

 Using projected zeroth-order Hamiltonian (+Z)

 FOCKRIB=T FOCKRIC=T FOCKRIP=T CABSP=T CABSA=T CABSK=T CABSF=T GBC=F EBC=F DMAT=T NOFIK=T NOPAO=1 SOLVE=-1  USEPAO=0
 EXCH_A= T EXCH_B= F EXCH_C= F EXCH_P= F
 
 Geminal basis:    OPTFULL  GEM_TYPE=SLATER  BETA=1.0  NGEM=6

 Optimizing Gaussian exponents for each gem_beta

 Geminal optimization for beta= 1.0000
 Weight function:   m=0, omega= 1.4646

 Augmented Hessian optimization of geminal fit. Trust ratio= 0.40000
 Convergence reached after   2 iterations. Final gradient= 8.24D-16, Step= 4.32D-06, Delta= 1.28D-09
 
 Alpha:                 0.19532     0.81920     2.85917     9.50073    35.69989   197.79328
 Coeff:                 0.27070     0.30552     0.18297     0.10986     0.06810     0.04224
 

 All pairs explicitly correlated. Number of r12-pairs:           78
 
 AO(A)-basis ORBITAL           loaded. Number of functions:     230
 RI(R)-basis CC-PVTZ/JKFIT     loaded. Number of functions:     376
 DF-basis CC-PVTZ/JKFIT        loaded. Number of functions:     376

 Screening thresholds:   THRAO=  1.00D-10  THRMO=  1.00D-09  THRPROD=  1.00D-09
                         THRSW=  1.00D-05  THROV=  1.00D-12  THRF12=   1.00D-08

 CPU time for Fock operators                      0.93 sec
 
 Construction of ABS:
 Smallest eigenvalue of S          2.58E-04  (threshold= 1.00E-08)
 Ratio eigmin/eigmax               1.84E-06  (threshold= 1.00E-09)
 Smallest eigenvalue of S kept     2.58E-04  (threshold= 2.58E-04, 0 functions deleted, 376 kept)
 
 Construction of CABS:
 Smallest eigenvalue of S          2.30E-08  (threshold= 1.00E-08)
 Ratio eigmin/eigmax               2.30E-08  (threshold= 1.00E-09)
 Smallest eigenvalue of S kept     2.30E-08  (threshold= 2.30E-08, 0 functions deleted, 376 kept)
 
 CPU time for CABS singles                        0.18 sec

 CABS-singles contribution of  -0.01593189 patched into reference energy.
 New reference energy        -263.78500961
 
 AO(A)-basis ORBITAL           loaded. Number of functions:     230
 RI(R)-basis CC-PVTZ/JKFIT     loaded. Number of functions:     376
 DF-basis AUG-CC-PVTZ/MP2FIT   loaded. Number of functions:     516

 Screening thresholds:   THRAO=  1.00D-10  THRMO=  1.00D-09  THRPROD=  1.00D-09
                         THRSW=  1.00D-05  THROV=  1.00D-12  THRF12=   1.00D-08

 CPU time for 3-index integral evaluation         1.89 sec
 CPU time for first  half transformation          0.27 sec ( 8766.3 MFLOP/sec)
 CPU time for second half transformation          0.04 sec ( 2547.4 MFLOP/sec)
 CPU time for sorting                             0.16 sec
 CPU time for fitting                             0.04 sec (34826.3 MFLOP/sec)
 CPU time for tilde quantities                    0.07 sec (26412.6 MFLOP/sec)
 CPU time for assembly                            0.85 sec (27586.8 MFLOP/sec)
 CPU time for tranop_f12                          0.93 sec (31872.0 MFLOP/sec)
 CPU time for f12 integrals (total)               6.44 sec
 F12-matrices built in  3 passes.
 F12-matrices built in  3 passes.
 F12-matrices built in  3 passes.
 F12-matrices built in  3 passes.
 FC-matrix built in  3 passes.
 CPU time for f12 matrices (total)                0.54 sec

 Diagonal F12 approximation with fixed coefficients:  TSING= 0.500,  TTRIP= 0.250 (scaled by -1/beta)

 DF-MP2-F12 energy corrections:
 ------------------------------
 Approx.                                    Singlet             Triplet             Total
 DF-MP2-F12/3*C(DX,FIX)                -0.097441306171     -0.016933172829     -0.114374479000
 DF-MP2-F12/3*C(FIX)                   -0.079850889981     -0.013394425007     -0.093245314989
 DF-MP2-F12/3C(FIX)                    -0.080212291190     -0.013418281701     -0.093630572891

 DF-MP2-F12 correlation energies:
 --------------------------------
 Approx.                                    Singlet             Triplet             Ecorr            Total Energy
 DF-MP2                                -0.537805171250     -0.343146664320     -0.880951835570   -264.665961446385
 DF-MP2-F12/3*C(DX,FIX)                -0.635246477421     -0.360079837149     -0.995326314569   -264.780335925385
 DF-MP2-F12/3*C(FIX)                   -0.617656061231     -0.356541089327     -0.974197150558   -264.759206761373
 DF-MP2-F12/3C(FIX)                    -0.618017462440     -0.356564946021     -0.974582408461   -264.759592019276

 SCS-DF-MP2 energies (F_SING= 1.20000  F_TRIP= 0.62222  F_PARALLEL= 0.33333):
 ----------------------------------------------------------------------------
 SCS-DF-MP2                            -0.858879685521   -264.643889296336
 SCS-DF-MP2-F12/3*C(DX,FIX)            -0.986345449353   -264.771355060168
 SCS-DF-MP2-F12/3*C(FIX)               -0.963035062392   -264.748044673207
 SCS-DF-MP2-F12/3C(FIX)                -0.963483588008   -264.748493198823
 Symmetry transformation completed.

 Number of N-1 electron functions:              12
 Number of N-2 electron functions:              78
 Number of singly external CSFs:              2568
 Number of doubly external CSFs:           3298596
 Total number of CSFs:                     3301165

 Pair and operator lists are different

 Length of J-op  integral file:             474.22 MB
 Length of K-op  integral file:             572.29 MB
 Length of 3-ext integral record:             0.00 MB

 For full I/O caching in triples, increase memory by 50.81 Mwords to 151.09 Mwords.

 Integral transformation finished. Total CPU:  13.93 sec, npass=  1  Memory used:  87.46 MW

 Reference energy:                   -263.78500961

 Adding F12 terms to K(Cij), methodcc=6,  factor=1.0

 ITER.      SQ.NORM     CORR.ENERGY   TOTAL ENERGY   ENERGY CHANGE        DEN1      VAR(S)    VAR(P)  DIIS     TIME
   1      1.20217932    -0.86287833  -264.64788794     0.01808985     0.04675824  0.72D-02  0.56D-02  1  1    30.31
   2      1.21650533    -0.85863797  -264.64364758     0.00424036    -0.02017287  0.86D-04  0.59D-03  2  2    38.42
   3      1.22186947    -0.85873314  -264.64374275    -0.00009517    -0.00236182  0.13D-03  0.32D-04  3  3    46.20
   4      1.22467637    -0.85860449  -264.64361410     0.00012865    -0.00141274  0.76D-05  0.41D-05  4  4    54.07
   5      1.22570983    -0.85856651  -264.64357612     0.00003798    -0.00036745  0.56D-06  0.29D-06  5  5    61.95
   6      1.22587256    -0.85853957  -264.64354918     0.00002694    -0.00000807  0.40D-07  0.24D-07  6  6    69.83
   7      1.22590208    -0.85853713  -264.64354674     0.00000245    -0.00000622  0.27D-08  0.40D-08  6  4    77.61
   8      1.22590244    -0.85853663  -264.64354624     0.00000050     0.00000193  0.40D-09  0.28D-09  6  1    85.39
   9      1.22590303    -0.85853670  -264.64354631    -0.00000007     0.00000058  0.28D-10  0.22D-10  6  2    93.12

 Norm of t1 vector:      0.10607082      S-energy:     0.00000043      T1 diagnostic:  0.01531000
                                                                       D1 diagnostic:  0.04500652

 Adding energy correction from Wij-K(Fij), methodcc=6  factor=1.0
 
  CCSD correlation energy              -0.858536695158
  MP2-F12 correction (uncoupled)       -0.092471926581
  C*T doubles correction               -0.001477595544
  f12b correction                       0.015404997044


 Total CPU time for triples:    219.65 sec


 RESULTS
 =======

  Reference energy                   -263.769077721917
  F12 singles correction               -0.015931888899

 F12 singles corrections added to reference energy

  New reference energy               -263.785009610815

  F12a singlet correction              -0.080413073841
  F12a triplet correction              -0.013536448284
  F12a total correction                -0.093949522125

 F12a corrections for ansatz F12/3C(FIX) added to CCSD energy
 
  CCSD-F12a singlet pair energy        -0.641940315504
  CCSD-F12a triplet pair energy        -0.310546331851
  CCSD-F12a correlation energy         -0.952486217283

  Triples (T) contribution             -0.037662342038
  Total correlation energy             -0.990148559320

  CCSD-F12a total energy             -264.737495828098
  CCSD[T]-F12a energy                -264.777707281282
  CCSD-T-F12a energy                 -264.774218800339
 !CCSD(T)-F12a total energy          -264.775158170136

 F12b corrections for ansatz F12/3C(FIX) added to CCSD(T)-F12a energy

  CCSD-F12b singlet pair energy        -0.627758441300
  CCSD-F12b triplet pair energy        -0.309323209012
  CCSD-F12b correlation energy         -0.937081220239

  Triples (T) contribution             -0.037662342038
  Total correlation energy             -0.974743562277

  CCSD-F12b total energy             -264.722090831055
  CCSD[T]-F12b energy                -264.762302284239
  CCSD-T-F12b energy                 -264.758813803296
 !CCSD(T)-F12b total energy          -264.759753173092

 Timing summary (sec):

 STEP                 CPU(USER)    SYS     CPU(TOT)    WALL
 Transformation         14.04      1.16     15.20     15.20
 CCSD iterations        70.33      2.84     73.17     73.16
 Triples               219.65      2.26    221.91    221.82
 MP2-F12                 8.78      1.28     10.06     10.06
 F12b energy             4.92      0.04      4.96      4.96

 Program statistics:

 Available memory in ccsd:                99998934
 Min. memory needed in ccsd:               8644845
 Max. memory used in ccsd:                11598633
 Max. memory used in cckext:               8768967 (10 integral passes)



 **********************************************************************************************************************************
 DATASETS  * FILE   NREC   LENGTH (MB)   RECORD NAMES
              1      20      527.84       500      610      700      900      950      970     1000      129      960     1100   
                                          VAR    BASINP    GEOM    SYMINP    ZMAT    AOBASIS   BASIS     P2S    ABASIS      S 
                                         1400     1410     1200     1210     1080     1600     1650     1700      960(1)  1380   
                                           T        V       H0       H01     AOSYM     SMH    MOLCAS    OPER    ABASIS    JKOP   

              2       5        2.50       700     1000     2100     7360     7350   
                                         GEOM     BASIS     RHF    F12ABS    EF12   

 PROGRAMS   *        TOTAL   CCSD(T)        HF       INT
 CPU TIMES  *       333.68    317.82      8.91      6.88
 REAL TIME  *       342.50 SEC
 DISK USED  *         2.47 GB      
 SF USED    *         1.91 GB      
 GA USED    *         2.40 MB       (max)       0.00 MB       (current)
 **********************************************************************************************************************************

     CCSD(T)-F12        HF-SCF  
   -264.75975317   -263.76907772
 **********************************************************************************************************************************
 Variable memory released
