
 Primary working directories    : /scratch/kee
 Secondary working directories  : /scratch/kee
 Wavefunction directory         : /home/kee/wfu/
 Main file repository           : /scratch/kee/

 ARCHNAME  : Linux/x86_64
 FC        : /opt/intel/composer_xe_2015.0.090/bin/intel64/ifort
 FCVERSION : 15.0.0
 BLASLIB   : -L/opt/intel/mkl/lib/intel64 -lmkl_intel_ilp64 -lmkl_sequential -lmkl_core
 id        : emory

 Nodes     nprocs
 node17       3
 Number of processes for MPI-2 version of Molpro:   nprocs(total)=    4   nprocs(compute)=    3   nprocs(helper)=    1
 ga_uses_ma=false, calling ma_init with nominal heap.
 GA-space will be limited to   8.0 MW (determined by -G option)

 Using customized tuning parameters: mindgm=7; mindgv=32; mindgc=1; mindgr=1; noblas=0; mincuda=1000; minvec=7
 default implementation of scratch files=sf  

 ***,co2h2o
 memory,100,m
 basis avtz
 geomtype = xyz
 geometry = {
 6
       0.00000777
 O    10.97257393   -1.10347931    0.00000000
 O    11.76744404    1.08065151   -0.00000000
 O     2.64356282    0.00000000    0.00000000
 H     1.89556774    0.58340495    0.10287003
 H     3.39598802    0.58686026    0.10347930
 C    11.34356282    0.00000000    0.00000000
 }
 hf
 ccsd(t)-f12
 ---

 Variables initialized (665), CPU time= 0.00 sec
 Commands  initialized (462), CPU time= 0.01 sec, 486 directives.
 Default parameters read. Elapsed time= 0.04 sec

 Checking input...
 Passed
1


                                         ***  PROGRAM SYSTEM MOLPRO  ***
                         Copyright, University College Cardiff Consultants Limited, 2008

                                    Version 2010.1 linked 9 Dec 2014 15:06:28 


 **********************************************************************************************************************************
 LABEL *   co2h2o                                                                        
 Linux-2.6.32-504.el6.x86_64/node17(x86_64) 64 bit mpp version                           DATE: 18-Jan-17          TIME: 22:12:23  
 **********************************************************************************************************************************

 Patch level:      19
 **********************************************************************************************************************************

 Variable memory set to  100000000 words,  buffer space   230000 words

 SETTING BASIS          =    AVTZ
 SETTING GEOMTYPE       =    XYZ

Geometry recognized as XYZ



 Recomputing integrals since basis changed


 Using spherical harmonics

 Library entry O      S aug-cc-pVTZ          selected for orbital group  1
 Library entry O      P aug-cc-pVTZ          selected for orbital group  1
 Library entry O      D aug-cc-pVTZ          selected for orbital group  1
 Library entry O      F aug-cc-pVTZ          selected for orbital group  1
 Library entry H      S aug-cc-pVTZ          selected for orbital group  2
 Library entry H      P aug-cc-pVTZ          selected for orbital group  2
 Library entry H      D aug-cc-pVTZ          selected for orbital group  2
 Library entry C      S aug-cc-pVTZ          selected for orbital group  3
 Library entry C      P aug-cc-pVTZ          selected for orbital group  3
 Library entry C      D aug-cc-pVTZ          selected for orbital group  3
 Library entry C      F aug-cc-pVTZ          selected for orbital group  3

1PROGRAM * SEWARD (Integral evaluation for generally contracted gaussian basis sets)     Author: Roland Lindh, 1990

 Geometry written to block  1 of record 700


 Point group  C1  



 ATOMIC COORDINATES

 NR  ATOM    CHARGE       X              Y              Z

   1  O       8.00   20.735159684   -2.085273688    0.000000000
   2  O       8.00   22.237246502    2.042135397    0.000000000
   3  O       8.00    4.995609741    0.000000000    0.000000000
   4  H       1.00    3.582103892    1.102475579    0.194396184
   5  H       1.00    6.417487303    1.109005169    0.195547537
   6  C       6.00   21.436227084    0.000000000    0.000000000

 Bond lengths in Bohr (Angstrom)

 1-6  2.199968602  2-6  2.193615529  3-4  1.803119814  3-5  1.813799081
     (1.164173245)     (1.160811343)     (0.954169911)     (0.959821135)

 Bond angles

  1-6-2  177.16520951   4-3-5  103.24222917

 NUCLEAR CHARGE:                   32
 NUMBER OF PRIMITIVE AOS:         322
 NUMBER OF SYMMETRY AOS:          282
 NUMBER OF CONTRACTIONS:          230   ( 230A   )
 NUMBER OF CORE ORBITALS:           4   (   4A   )
 NUMBER OF VALENCE ORBITALS:       18   (  18A   )


 NUCLEAR REPULSION ENERGY   80.77878101


 Eigenvalues of metric

         1 0.350E-03 0.371E-03 0.388E-03 0.419E-03 0.903E-03 0.923E-03 0.163E-02 0.176E-02


 Contracted 2-electron integrals neglected if value below      1.0D-11
 AO integral compression algorithm  1   Integral accuracy      1.0D-11

     428.343 MB (compressed) written to integral file ( 17.6%)

     Node minimum: 141.820 MB, node maximum: 144.179 MB


 NUMBER OF SORTED TWO-ELECTRON INTEGRALS:  117629820.     BUFFER LENGTH:  32768
 NUMBER OF SEGMENTS:   8  SEGMENT LENGTH:   15997437      RECORD LENGTH: 524288

 Memory used in sort:      16.55 MW

 SORT1 READ   304163061. AND WROTE    29390011. INTEGRALS IN     86 RECORDS. CPU TIME:     2.61 SEC, REAL TIME:     2.94 SEC
 SORT2 READ    87892330. AND WROTE   352862895. INTEGRALS IN   1623 RECORDS. CPU TIME:     0.97 SEC, REAL TIME:     1.27 SEC

 Node minimum:   117612110.  Node maximum:   117629820. integrals

 OPERATOR DM      FOR CENTER  0  COORDINATES:    0.000000    0.000000    0.000000


 **********************************************************************************************************************************
 DATASETS  * FILE   NREC   LENGTH (MB)   RECORD NAMES
              1      18        4.62       500      610      700      900      950      970     1000      129      960     1100   
                                          VAR    BASINP    GEOM    SYMINP    ZMAT    AOBASIS   BASIS     P2S    ABASIS      S 
                                         1400     1410     1200     1210     1080     1600     1650     1700   
                                           T        V       H0       H01     AOSYM     SMH    MOLCAS    OPER   

 PROGRAMS   *        TOTAL       INT
 CPU TIMES  *         6.50      6.43
 REAL TIME  *         7.32 SEC
 DISK USED  *         1.44 GB      
 GA USED    *         0.00 MB       (max)       0.00 MB       (current)
 **********************************************************************************************************************************

1PROGRAM * RHF-SCF (CLOSED SHELL)       Authors: W. Meyer, H.-J. Werner


 NUMBER OF ELECTRONS:      16+   16-    SPACE SYMMETRY=1    SPIN SYMMETRY=Singlet 
 CONVERGENCE THRESHOLDS:    1.00E-05 (Density)    1.00E-07 (Energy)
 MAX. NUMBER OF ITERATIONS:       60
 INTERPOLATION TYPE:            DIIS
 INTERPOLATION STEPS:              2 (START)      1 (STEP)
 LEVEL SHIFTS:                  0.00 (CLOSED)  0.00 (OPEN) 



 Orbital guess generated from atomic densities. Full valence occupancy:   22

 Molecular orbital dump at record        2100.2

 ITERATION    DDIFF          GRAD             ENERGY        2-EL.EN.            DIPOLE MOMENTS         DIIS
    1      0.000D+00      0.000D+00      -263.65940736    356.919245   -0.06883    1.17032    0.19888    0
    2      0.000D+00      0.469D-02      -263.72493787    352.410413   -0.01192    0.66907    0.11691    1
    3      0.752D-02      0.319D-02      -263.76853748    354.960278   -0.03328    0.79669    0.13650    2
    4      0.310D-02      0.300D-03      -263.76903424    354.747041   -0.03267    0.79865    0.13738    3
    5      0.356D-03      0.875D-04      -263.76909284    354.750364   -0.03226    0.79484    0.13640    4
    6      0.133D-03      0.355D-04      -263.76910013    354.764695   -0.03245    0.79461    0.13655    5
    7      0.444D-04      0.877D-05      -263.76910087    354.756582   -0.03230    0.79470    0.13647    6
    8      0.145D-04      0.217D-05      -263.76910092    354.757624   -0.03243    0.79436    0.13647    7
    9      0.402D-05      0.138D-05      -263.76910093    354.757686   -0.03233    0.79464    0.13647    0

 Final occupancy:  16

 !RHF STATE 1.1 Energy               -263.769100927836
 Nuclear energy                        80.77878101
 One-electron energy                 -521.92672469
 Two-electron energy                  177.37884276
 Virial quotient                       -1.00179883
 !RHF STATE 1.1 Dipole moment          -0.03232599     0.79464184     0.13647042
 Dipole moment /Debye                  -0.08215909     2.01964580     0.34685050

 Orbital energies:

         1.1          2.1          3.1          4.1          5.1          6.1          7.1          8.1          9.1         10.1
    -20.654475   -20.653245   -20.568126   -11.462716    -1.531384    -1.478068    -1.355092    -0.801708    -0.743792    -0.715920

        11.1         12.1         13.1         14.1         15.1         16.1         17.1         18.1
     -0.715399    -0.715394    -0.587902    -0.545087    -0.545038    -0.511174     0.027133     0.039996


 **********************************************************************************************************************************
 DATASETS  * FILE   NREC   LENGTH (MB)   RECORD NAMES
              1      18        4.62       500      610      700      900      950      970     1000      129      960     1100   
                                          VAR    BASINP    GEOM    SYMINP    ZMAT    AOBASIS   BASIS     P2S    ABASIS      S 
                                         1400     1410     1200     1210     1080     1600     1650     1700   
                                           T        V       H0       H01     AOSYM     SMH    MOLCAS    OPER   

              2       3        1.44       700     1000     2100   
                                         GEOM     BASIS     RHF  

 PROGRAMS   *        TOTAL        HF       INT
 CPU TIMES  *        15.05      8.55      6.43
 REAL TIME  *        16.13 SEC
 DISK USED  *         1.47 GB      
 SF USED    *         0.21 MB      
 GA USED    *         0.00 MB       (max)       0.00 MB       (current)
 **********************************************************************************************************************************


1PROGRAM * CCSD (Closed-shell coupled cluster)     Authors: C. Hampel, H.-J. Werner, 1991, M. Deegan, P.J. Knowles, 1992

                                  CCSD-F12 implementation by  H.-J. Werner, 2007

                   Density fitting integral evaluation by F.R. Manby, 2003,2007, G. Knizia, 2010

 Basis set CC-PVTZ/JKFIT generated.      Number of basis functions:   376 
 Basis set AUG-CC-PVTZ/MP2FIT generated. Number of basis functions:   516 

 Convergence thresholds:  THRVAR = 1.00D-08  THRDEN = 1.00D-06

 CCSD(T)     terms to be evaluated (factor= 1.000)


 Number of core orbitals:           4 (   4 )
 Number of closed-shell orbitals:  12 (  12 )
 Number of external orbitals:     214 ( 214 )

 Molecular orbitals read from record     2100.2  Type=RHF/CANONICAL (state 1.1)

 MP2-F12 correlation treatment (H.-J. Werner, 2006)
 --------------------------------------------------

 Using MP2-F12 with ansatz 3C(FIX)

 Using projected zeroth-order Hamiltonian (+Z)

 FOCKRIB=T FOCKRIC=T FOCKRIP=T CABSP=T CABSA=T CABSK=T CABSF=T GBC=F EBC=F DMAT=T NOFIK=T NOPAO=1 SOLVE=-1  USEPAO=0
 EXCH_A= T EXCH_B= F EXCH_C= F EXCH_P= F
 
 Geminal basis:    OPTFULL  GEM_TYPE=SLATER  BETA=1.0  NGEM=6

 Optimizing Gaussian exponents for each gem_beta

 Geminal optimization for beta= 1.0000
 Weight function:   m=0, omega= 1.4646

 Augmented Hessian optimization of geminal fit. Trust ratio= 0.40000
 Convergence reached after   2 iterations. Final gradient= 8.24D-16, Step= 4.32D-06, Delta= 1.28D-09
 
 Alpha:                 0.19532     0.81920     2.85917     9.50073    35.69989   197.79328
 Coeff:                 0.27070     0.30552     0.18297     0.10986     0.06810     0.04224
 

 All pairs explicitly correlated. Number of r12-pairs:           78
 
 AO(A)-basis ORBITAL           loaded. Number of functions:     230
 RI(R)-basis CC-PVTZ/JKFIT     loaded. Number of functions:     376
 DF-basis CC-PVTZ/JKFIT        loaded. Number of functions:     376

 Screening thresholds:   THRAO=  1.00D-10  THRMO=  1.00D-09  THRPROD=  1.00D-09
                         THRSW=  1.00D-05  THROV=  1.00D-12  THRF12=   1.00D-08

 CPU time for Fock operators                      0.95 sec
 
 Construction of ABS:
 Smallest eigenvalue of S          2.58E-04  (threshold= 1.00E-08)
 Ratio eigmin/eigmax               1.84E-06  (threshold= 1.00E-09)
 Smallest eigenvalue of S kept     2.58E-04  (threshold= 2.58E-04, 0 functions deleted, 376 kept)
 
 Construction of CABS:
 Smallest eigenvalue of S          2.30E-08  (threshold= 1.00E-08)
 Ratio eigmin/eigmax               2.30E-08  (threshold= 1.00E-09)
 Smallest eigenvalue of S kept     2.30E-08  (threshold= 2.30E-08, 0 functions deleted, 376 kept)
 
 CPU time for CABS singles                        0.17 sec

 CABS-singles contribution of  -0.01593162 patched into reference energy.
 New reference energy        -263.78503255
 
 AO(A)-basis ORBITAL           loaded. Number of functions:     230
 RI(R)-basis CC-PVTZ/JKFIT     loaded. Number of functions:     376
 DF-basis AUG-CC-PVTZ/MP2FIT   loaded. Number of functions:     516

 Screening thresholds:   THRAO=  1.00D-10  THRMO=  1.00D-09  THRPROD=  1.00D-09
                         THRSW=  1.00D-05  THROV=  1.00D-12  THRF12=   1.00D-08

 CPU time for 3-index integral evaluation         1.93 sec
 CPU time for first  half transformation          0.25 sec ( 9757.0 MFLOP/sec)
 CPU time for second half transformation          0.02 sec ( 5293.3 MFLOP/sec)
 CPU time for sorting                             0.15 sec
 CPU time for fitting                             0.06 sec (23217.5 MFLOP/sec)
 CPU time for tilde quantities                    0.08 sec (23111.0 MFLOP/sec)
 CPU time for assembly                            0.82 sec (28816.3 MFLOP/sec)
 CPU time for tranop_f12                          0.94 sec (32253.6 MFLOP/sec)
 CPU time for f12 integrals (total)               6.39 sec
 F12-matrices built in  3 passes.
 F12-matrices built in  3 passes.
 F12-matrices built in  3 passes.
 F12-matrices built in  3 passes.
 FC-matrix built in  3 passes.
 CPU time for f12 matrices (total)                0.55 sec

 Diagonal F12 approximation with fixed coefficients:  TSING= 0.500,  TTRIP= 0.250 (scaled by -1/beta)

 DF-MP2-F12 energy corrections:
 ------------------------------
 Approx.                                    Singlet             Triplet             Total
 DF-MP2-F12/3*C(DX,FIX)                -0.097442387148     -0.016933350409     -0.114375737557
 DF-MP2-F12/3*C(FIX)                   -0.079851898000     -0.013394579504     -0.093246477504
 DF-MP2-F12/3C(FIX)                    -0.080213294821     -0.013418416339     -0.093631711160

 DF-MP2-F12 correlation energies:
 --------------------------------
 Approx.                                    Singlet             Triplet             Ecorr            Total Energy
 DF-MP2                                -0.537800222664     -0.343141600957     -0.880941823621   -264.665974374007
 DF-MP2-F12/3*C(DX,FIX)                -0.635242609811     -0.360074951366     -0.995317561177   -264.780350111564
 DF-MP2-F12/3*C(FIX)                   -0.617652120664     -0.356536180461     -0.974188301125   -264.759220851511
 DF-MP2-F12/3C(FIX)                    -0.618013517485     -0.356560017296     -0.974573534781   -264.759606085168

 SCS-DF-MP2 energies (F_SING= 1.20000  F_TRIP= 0.62222  F_PARALLEL= 0.33333):
 ----------------------------------------------------------------------------
 SCS-DF-MP2                            -0.858870596681   -264.643903147067
 SCS-DF-MP2-F12/3*C(DX,FIX)            -0.986337768179   -264.771370318566
 SCS-DF-MP2-F12/3*C(FIX)               -0.963027279306   -264.748059829692
 SCS-DF-MP2-F12/3C(FIX)                -0.963475787300   -264.748508337686
 Symmetry transformation completed.

 Number of N-1 electron functions:              12
 Number of N-2 electron functions:              78
 Number of singly external CSFs:              2568
 Number of doubly external CSFs:           3298596
 Total number of CSFs:                     3301165

 Pair and operator lists are different

 Length of J-op  integral file:             474.22 MB
 Length of K-op  integral file:             572.29 MB
 Length of 3-ext integral record:             0.00 MB

 For full I/O caching in triples, increase memory by 50.81 Mwords to 151.09 Mwords.

 Integral transformation finished. Total CPU:  12.69 sec, npass=  1  Memory used:  87.46 MW

 Reference energy:                   -263.78503255

 Adding F12 terms to K(Cij), methodcc=6,  factor=1.0

 ITER.      SQ.NORM     CORR.ENERGY   TOTAL ENERGY   ENERGY CHANGE        DEN1      VAR(S)    VAR(P)  DIIS     TIME
   1      1.20217557    -0.86286991  -264.64790246     0.01808826     0.04675513  0.72D-02  0.56D-02  1  1    28.60
   2      1.21650083    -0.85862999  -264.64366254     0.00423992    -0.02017189  0.86D-04  0.59D-03  2  2    36.02
   3      1.22186486    -0.85872521  -264.64375776    -0.00009522    -0.00236188  0.13D-03  0.32D-04  3  3    43.85
   4      1.22467163    -0.85859657  -264.64362912     0.00012864    -0.00141269  0.76D-05  0.41D-05  4  4    51.50
   5      1.22570501    -0.85855860  -264.64359115     0.00003797    -0.00036742  0.56D-06  0.29D-06  5  5    59.14
   6      1.22586772    -0.85853166  -264.64356421     0.00002694    -0.00000807  0.40D-07  0.24D-07  6  6    66.79
   7      1.22589723    -0.85852922  -264.64356177     0.00000245    -0.00000622  0.27D-08  0.40D-08  6  4    74.43
   8      1.22589759    -0.85852872  -264.64356127     0.00000050     0.00000193  0.40D-09  0.28D-09  6  1    81.93
   9      1.22589818    -0.85852879  -264.64356134    -0.00000007     0.00000058  0.28D-10  0.22D-10  6  2    89.51

 Norm of t1 vector:      0.10606904      S-energy:     0.00000037      T1 diagnostic:  0.01530975
                                                                       D1 diagnostic:  0.04500745

 Adding energy correction from Wij-K(Fij), methodcc=6  factor=1.0
 
  CCSD correlation energy              -0.858528786536
  MP2-F12 correction (uncoupled)       -0.092473121708
  C*T doubles correction               -0.001477545245
  f12b correction                       0.015405055083


 Total CPU time for triples:    216.83 sec


 RESULTS
 =======

  Reference energy                   -263.769100927836
  F12 singles correction               -0.015931622551

 F12 singles corrections added to reference energy

  New reference energy               -263.785032550387

  F12a singlet correction              -0.080414067880
  F12a triplet correction              -0.013536599073
  F12a total correction                -0.093950666953

 F12a corrections for ansatz F12/3C(FIX) added to CCSD energy
 
  CCSD-F12a singlet pair energy        -0.641936880019
  CCSD-F12a triplet pair energy        -0.310542938799
  CCSD-F12a correlation energy         -0.952479453489

  Triples (T) contribution             -0.037660889856
  Total correlation energy             -0.990140343345

  CCSD-F12a total energy             -264.737512003876
  CCSD[T]-F12a energy                -264.777721847548
  CCSD-T-F12a energy                 -264.774233587817
 !CCSD(T)-F12a total energy          -264.775172893731

 F12b corrections for ansatz F12/3C(FIX) added to CCSD(T)-F12a energy

  CCSD-F12b singlet pair energy        -0.627754949770
  CCSD-F12b triplet pair energy        -0.309319813964
  CCSD-F12b correlation energy         -0.937074398406

  Triples (T) contribution             -0.037660889856
  Total correlation energy             -0.974735288262

  CCSD-F12b total energy             -264.722106948793
  CCSD[T]-F12b energy                -264.762316792465
  CCSD-T-F12b energy                 -264.758828532735
 !CCSD(T)-F12b total energy          -264.759767838648

 Timing summary (sec):

 STEP                 CPU(USER)    SYS     CPU(TOT)    WALL
 Transformation         12.80      1.19     13.99     14.05
 CCSD iterations        68.07      2.84     70.91     71.10
 Triples               216.83      2.17    219.00    218.91
 MP2-F12                 8.66      1.26      9.92     10.35
 F12b energy             4.66      0.03      4.69      4.69

 Program statistics:

 Available memory in ccsd:                99998934
 Min. memory needed in ccsd:               8644845
 Max. memory used in ccsd:                11598633
 Max. memory used in cckext:               8768967 (10 integral passes)



 **********************************************************************************************************************************
 DATASETS  * FILE   NREC   LENGTH (MB)   RECORD NAMES
              1      20      527.84       500      610      700      900      950      970     1000      129      960     1100   
                                          VAR    BASINP    GEOM    SYMINP    ZMAT    AOBASIS   BASIS     P2S    ABASIS      S 
                                         1400     1410     1200     1210     1080     1600     1650     1700      960(1)  1380   
                                           T        V       H0       H01     AOSYM     SMH    MOLCAS    OPER    ABASIS    JKOP   

              2       5        2.50       700     1000     2100     7360     7350   
                                         GEOM     BASIS     RHF    F12ABS    EF12   

 PROGRAMS   *        TOTAL   CCSD(T)        HF       INT
 CPU TIMES  *       326.36    311.31      8.55      6.43
 REAL TIME  *       335.55 SEC
 DISK USED  *         2.34 GB      
 SF USED    *         1.91 GB      
 GA USED    *         2.40 MB       (max)       0.00 MB       (current)
 **********************************************************************************************************************************

     CCSD(T)-F12        HF-SCF  
   -264.75976784   -263.76910093
 **********************************************************************************************************************************
 Variable memory released
