
 Primary working directories    : /scratch/kee
 Secondary working directories  : /scratch/kee
 Wavefunction directory         : /home/kee/wfu/
 Main file repository           : /scratch/kee/

 ARCHNAME  : Linux/x86_64
 FC        : /opt/intel/composer_xe_2015.0.090/bin/intel64/ifort
 FCVERSION : 15.0.0
 BLASLIB   : -L/opt/intel/mkl/lib/intel64 -lmkl_intel_ilp64 -lmkl_sequential -lmkl_core
 id        : emory

 Nodes     nprocs
 node22       3
 Number of processes for MPI-2 version of Molpro:   nprocs(total)=    4   nprocs(compute)=    3   nprocs(helper)=    1
 ga_uses_ma=false, calling ma_init with nominal heap.
 GA-space will be limited to   8.0 MW (determined by -G option)

 Using customized tuning parameters: mindgm=7; mindgv=32; mindgc=1; mindgr=1; noblas=0; mincuda=1000; minvec=7
 default implementation of scratch files=sf  

 ***,co2h2o
 memory,100,m
 basis avtz
 geomtype = xyz
 geometry = {
 6
       0.00000777
 O    10.97257393   -1.10347931    0.00000000
 O    11.76744404    1.08065151   -0.00000000
 O     5.04356282    0.00000000    0.00000000
 H     4.29556774    0.58340495    0.10287003
 H     5.79598802    0.58686026    0.10347930
 C    11.34356282    0.00000000    0.00000000
 }
 hf
 ccsd(t)-f12
 ---

 Variables initialized (665), CPU time= 0.01 sec
 Commands  initialized (462), CPU time= 0.00 sec, 486 directives.
 Default parameters read. Elapsed time= 0.04 sec

 Checking input...
 Passed
1


                                         ***  PROGRAM SYSTEM MOLPRO  ***
                         Copyright, University College Cardiff Consultants Limited, 2008

                                    Version 2010.1 linked 9 Dec 2014 15:06:28 


 **********************************************************************************************************************************
 LABEL *   co2h2o                                                                        
 Linux-2.6.32-504.el6.x86_64/node22(x86_64) 64 bit mpp version                           DATE: 18-Jan-17          TIME: 21:55:53  
 **********************************************************************************************************************************

 Patch level:      19
 **********************************************************************************************************************************

 Variable memory set to  100000000 words,  buffer space   230000 words

 SETTING BASIS          =    AVTZ
 SETTING GEOMTYPE       =    XYZ

Geometry recognized as XYZ



 Recomputing integrals since basis changed


 Using spherical harmonics

 Library entry O      S aug-cc-pVTZ          selected for orbital group  1
 Library entry O      P aug-cc-pVTZ          selected for orbital group  1
 Library entry O      D aug-cc-pVTZ          selected for orbital group  1
 Library entry O      F aug-cc-pVTZ          selected for orbital group  1
 Library entry H      S aug-cc-pVTZ          selected for orbital group  2
 Library entry H      P aug-cc-pVTZ          selected for orbital group  2
 Library entry H      D aug-cc-pVTZ          selected for orbital group  2
 Library entry C      S aug-cc-pVTZ          selected for orbital group  3
 Library entry C      P aug-cc-pVTZ          selected for orbital group  3
 Library entry C      D aug-cc-pVTZ          selected for orbital group  3
 Library entry C      F aug-cc-pVTZ          selected for orbital group  3

1PROGRAM * SEWARD (Integral evaluation for generally contracted gaussian basis sets)     Author: Roland Lindh, 1990

 Geometry written to block  1 of record 700


 Point group  C1  



 ATOMIC COORDINATES

 NR  ATOM    CHARGE       X              Y              Z

   1  O       8.00   20.735159684   -2.085273688    0.000000000
   2  O       8.00   22.237246502    2.042135397    0.000000000
   3  O       8.00    9.530952456    0.000000000    0.000000000
   4  H       1.00    8.117446608    1.102475579    0.194396184
   5  H       1.00   10.952830019    1.109005169    0.195547537
   6  C       6.00   21.436227084    0.000000000    0.000000000

 Bond lengths in Bohr (Angstrom)

 1-6  2.199968602  2-6  2.193615529  3-4  1.803119814  3-5  1.813799081
     (1.164173245)     (1.160811343)     (0.954169911)     (0.959821135)

 Bond angles

  1-6-2  177.16520951   4-3-5  103.24222917

 NUCLEAR CHARGE:                   32
 NUMBER OF PRIMITIVE AOS:         322
 NUMBER OF SYMMETRY AOS:          282
 NUMBER OF CONTRACTIONS:          230   ( 230A   )
 NUMBER OF CORE ORBITALS:           4   (   4A   )
 NUMBER OF VALENCE ORBITALS:       18   (  18A   )


 NUCLEAR REPULSION ENERGY   85.77357143


 Eigenvalues of metric

         1 0.345E-03 0.353E-03 0.379E-03 0.396E-03 0.899E-03 0.922E-03 0.157E-02 0.172E-02


 Contracted 2-electron integrals neglected if value below      1.0D-11
 AO integral compression algorithm  1   Integral accuracy      1.0D-11

     580.649 MB (compressed) written to integral file ( 18.7%)

     Node minimum: 192.676 MB, node maximum: 194.511 MB


 NUMBER OF SORTED TWO-ELECTRON INTEGRALS:  117629820.     BUFFER LENGTH:  32768
 NUMBER OF SEGMENTS:   8  SEGMENT LENGTH:   15997437      RECORD LENGTH: 524288

 Memory used in sort:      16.55 MW

 SORT1 READ   387589309. AND WROTE    43013645. INTEGRALS IN    127 RECORDS. CPU TIME:     3.38 SEC, REAL TIME:     3.84 SEC
 SORT2 READ   128873829. AND WROTE   352862895. INTEGRALS IN   2214 RECORDS. CPU TIME:     1.18 SEC, REAL TIME:     1.54 SEC

 Node minimum:   117612110.  Node maximum:   117629820. integrals

 OPERATOR DM      FOR CENTER  0  COORDINATES:    0.000000    0.000000    0.000000


 **********************************************************************************************************************************
 DATASETS  * FILE   NREC   LENGTH (MB)   RECORD NAMES
              1      18        4.62       500      610      700      900      950      970     1000      129      960     1100   
                                          VAR    BASINP    GEOM    SYMINP    ZMAT    AOBASIS   BASIS     P2S    ABASIS      S 
                                         1400     1410     1200     1210     1080     1600     1650     1700   
                                           T        V       H0       H01     AOSYM     SMH    MOLCAS    OPER   

 PROGRAMS   *        TOTAL       INT
 CPU TIMES  *         8.02      7.94
 REAL TIME  *         9.06 SEC
 DISK USED  *         2.08 GB      
 GA USED    *         0.00 MB       (max)       0.00 MB       (current)
 **********************************************************************************************************************************

1PROGRAM * RHF-SCF (CLOSED SHELL)       Authors: W. Meyer, H.-J. Werner


 NUMBER OF ELECTRONS:      16+   16-    SPACE SYMMETRY=1    SPIN SYMMETRY=Singlet 
 CONVERGENCE THRESHOLDS:    1.00E-05 (Density)    1.00E-07 (Energy)
 MAX. NUMBER OF ITERATIONS:       60
 INTERPOLATION TYPE:            DIIS
 INTERPOLATION STEPS:              2 (START)      1 (STEP)
 LEVEL SHIFTS:                  0.00 (CLOSED)  0.00 (OPEN) 



 Orbital guess generated from atomic densities. Full valence occupancy:   22

 Molecular orbital dump at record        2100.2

 ITERATION    DDIFF          GRAD             ENERGY        2-EL.EN.            DIPOLE MOMENTS         DIIS
    1      0.000D+00      0.000D+00      -263.65904541    366.865542   -0.06886    1.17031    0.19888    0
    2      0.000D+00      0.470D-02      -263.72464106    362.371047   -0.01519    0.65702    0.11596    1
    3      0.753D-02      0.320D-02      -263.76837869    364.917106   -0.03415    0.79036    0.13584    2
    4      0.310D-02      0.300D-03      -263.76887583    364.703892   -0.03400    0.79092    0.13674    3
    5      0.356D-03      0.877D-04      -263.76893457    364.707468   -0.03324    0.78807    0.13574    4
    6      0.134D-03      0.357D-04      -263.76894192    364.721767   -0.03364    0.78723    0.13589    5
    7      0.445D-04      0.895D-05      -263.76894268    364.713841   -0.03339    0.78760    0.13582    6
    8      0.147D-04      0.246D-05      -263.76894273    364.714607   -0.03357    0.78712    0.13582    7
    9      0.412D-05      0.167D-05      -263.76894274    364.714898   -0.03345    0.78748    0.13582    0

 Final occupancy:  16

 !RHF STATE 1.1 Energy               -263.768942738130
 Nuclear energy                        85.77357143
 One-electron energy                 -531.89996336
 Two-electron energy                  182.35744918
 Virial quotient                       -1.00179704
 !RHF STATE 1.1 Dipole moment          -0.03344571     0.78748021     0.13581791
 Dipole moment /Debye                  -0.08500494     2.00144395     0.34519209

 Orbital energies:

         1.1          2.1          3.1          4.1          5.1          6.1          7.1          8.1          9.1         10.1
    -20.655048   -20.653612   -20.568763   -11.463129    -1.531863    -1.478514    -1.355724    -0.802123    -0.744176    -0.716570

        11.1         12.1         13.1         14.1         15.1         16.1         17.1         18.1
     -0.715900    -0.715854    -0.588485    -0.545509    -0.545474    -0.511788     0.026590     0.041862


 **********************************************************************************************************************************
 DATASETS  * FILE   NREC   LENGTH (MB)   RECORD NAMES
              1      18        4.62       500      610      700      900      950      970     1000      129      960     1100   
                                          VAR    BASINP    GEOM    SYMINP    ZMAT    AOBASIS   BASIS     P2S    ABASIS      S 
                                         1400     1410     1200     1210     1080     1600     1650     1700   
                                           T        V       H0       H01     AOSYM     SMH    MOLCAS    OPER   

              2       3        1.44       700     1000     2100   
                                         GEOM     BASIS     RHF  

 PROGRAMS   *        TOTAL        HF       INT
 CPU TIMES  *        17.31      9.30      7.94
 REAL TIME  *        18.61 SEC
 DISK USED  *         2.11 GB      
 SF USED    *         0.21 MB      
 GA USED    *         0.00 MB       (max)       0.00 MB       (current)
 **********************************************************************************************************************************


1PROGRAM * CCSD (Closed-shell coupled cluster)     Authors: C. Hampel, H.-J. Werner, 1991, M. Deegan, P.J. Knowles, 1992

                                  CCSD-F12 implementation by  H.-J. Werner, 2007

                   Density fitting integral evaluation by F.R. Manby, 2003,2007, G. Knizia, 2010

 Basis set CC-PVTZ/JKFIT generated.      Number of basis functions:   376 
 Basis set AUG-CC-PVTZ/MP2FIT generated. Number of basis functions:   516 

 Convergence thresholds:  THRVAR = 1.00D-08  THRDEN = 1.00D-06

 CCSD(T)     terms to be evaluated (factor= 1.000)


 Number of core orbitals:           4 (   4 )
 Number of closed-shell orbitals:  12 (  12 )
 Number of external orbitals:     214 ( 214 )

 Molecular orbitals read from record     2100.2  Type=RHF/CANONICAL (state 1.1)

 MP2-F12 correlation treatment (H.-J. Werner, 2006)
 --------------------------------------------------

 Using MP2-F12 with ansatz 3C(FIX)

 Using projected zeroth-order Hamiltonian (+Z)

 FOCKRIB=T FOCKRIC=T FOCKRIP=T CABSP=T CABSA=T CABSK=T CABSF=T GBC=F EBC=F DMAT=T NOFIK=T NOPAO=1 SOLVE=-1  USEPAO=0
 EXCH_A= T EXCH_B= F EXCH_C= F EXCH_P= F
 
 Geminal basis:    OPTFULL  GEM_TYPE=SLATER  BETA=1.0  NGEM=6

 Optimizing Gaussian exponents for each gem_beta

 Geminal optimization for beta= 1.0000
 Weight function:   m=0, omega= 1.4646

 Augmented Hessian optimization of geminal fit. Trust ratio= 0.40000
 Convergence reached after   2 iterations. Final gradient= 8.24D-16, Step= 4.32D-06, Delta= 1.28D-09
 
 Alpha:                 0.19532     0.81920     2.85917     9.50073    35.69989   197.79328
 Coeff:                 0.27070     0.30552     0.18297     0.10986     0.06810     0.04224
 

 All pairs explicitly correlated. Number of r12-pairs:           78
 
 AO(A)-basis ORBITAL           loaded. Number of functions:     230
 RI(R)-basis CC-PVTZ/JKFIT     loaded. Number of functions:     376
 DF-basis CC-PVTZ/JKFIT        loaded. Number of functions:     376

 Screening thresholds:   THRAO=  1.00D-10  THRMO=  1.00D-09  THRPROD=  1.00D-09
                         THRSW=  1.00D-05  THROV=  1.00D-12  THRF12=   1.00D-08

 CPU time for Fock operators                      0.89 sec
 
 Construction of ABS:
 Smallest eigenvalue of S          2.58E-04  (threshold= 1.00E-08)
 Ratio eigmin/eigmax               1.84E-06  (threshold= 1.00E-09)
 Smallest eigenvalue of S kept     2.58E-04  (threshold= 2.58E-04, 0 functions deleted, 376 kept)
 
 Construction of CABS:
 Smallest eigenvalue of S          2.30E-08  (threshold= 1.00E-08)
 Ratio eigmin/eigmax               2.30E-08  (threshold= 1.00E-09)
 Smallest eigenvalue of S kept     2.30E-08  (threshold= 2.30E-08, 0 functions deleted, 376 kept)
 
 CPU time for CABS singles                        0.16 sec

 CABS-singles contribution of  -0.01593302 patched into reference energy.
 New reference energy        -263.78487576
 
 AO(A)-basis ORBITAL           loaded. Number of functions:     230
 RI(R)-basis CC-PVTZ/JKFIT     loaded. Number of functions:     376
 DF-basis AUG-CC-PVTZ/MP2FIT   loaded. Number of functions:     516

 Screening thresholds:   THRAO=  1.00D-10  THRMO=  1.00D-09  THRPROD=  1.00D-09
                         THRSW=  1.00D-05  THROV=  1.00D-12  THRF12=   1.00D-08

 CPU time for 3-index integral evaluation         2.03 sec
 CPU time for first  half transformation          0.21 sec (12385.8 MFLOP/sec)
 CPU time for second half transformation          0.02 sec ( 5156.9 MFLOP/sec)
 CPU time for sorting                             0.15 sec
 CPU time for fitting                             0.04 sec (34826.3 MFLOP/sec)
 CPU time for tilde quantities                    0.06 sec (30814.7 MFLOP/sec)
 CPU time for assembly                            0.79 sec (29314.0 MFLOP/sec)
 CPU time for tranop_f12                          0.87 sec (34785.7 MFLOP/sec)
 CPU time for f12 integrals (total)               6.22 sec
 F12-matrices built in  3 passes.
 F12-matrices built in  3 passes.
 F12-matrices built in  3 passes.
 F12-matrices built in  3 passes.
 FC-matrix built in  3 passes.
 CPU time for f12 matrices (total)                0.48 sec

 Diagonal F12 approximation with fixed coefficients:  TSING= 0.500,  TTRIP= 0.250 (scaled by -1/beta)

 DF-MP2-F12 energy corrections:
 ------------------------------
 Approx.                                    Singlet             Triplet             Total
 DF-MP2-F12/3*C(DX,FIX)                -0.097433847431     -0.016931969856     -0.114365817287
 DF-MP2-F12/3*C(FIX)                   -0.079843817468     -0.013393297145     -0.093237114613
 DF-MP2-F12/3C(FIX)                    -0.080205723734     -0.013417403648     -0.093623127383

 DF-MP2-F12 correlation energies:
 --------------------------------
 Approx.                                    Singlet             Triplet             Ecorr            Total Energy
 DF-MP2                                -0.537836686725     -0.343181422921     -0.881018109646   -264.665893871221
 DF-MP2-F12/3*C(DX,FIX)                -0.635270534156     -0.360113392777     -0.995383926933   -264.780259688508
 DF-MP2-F12/3*C(FIX)                   -0.617680504192     -0.356574720067     -0.974255224259   -264.759130985834
 DF-MP2-F12/3C(FIX)                    -0.618042410459     -0.356598826570     -0.974641237029   -264.759516998604

 SCS-DF-MP2 energies (F_SING= 1.20000  F_TRIP= 0.62222  F_PARALLEL= 0.33333):
 ----------------------------------------------------------------------------
 SCS-DF-MP2                            -0.858939131665   -264.643814893240
 SCS-DF-MP2-F12/3*C(DX,FIX)            -0.986395196493   -264.771270958068
 SCS-DF-MP2-F12/3*C(FIX)               -0.963085319739   -264.747961081314
 SCS-DF-MP2-F12/3C(FIX)                -0.963534606861   -264.748410368436
 Symmetry transformation completed.

 Number of N-1 electron functions:              12
 Number of N-2 electron functions:              78
 Number of singly external CSFs:              2568
 Number of doubly external CSFs:           3298596
 Total number of CSFs:                     3301165

 Pair and operator lists are different

 Length of J-op  integral file:             474.22 MB
 Length of K-op  integral file:             572.29 MB
 Length of 3-ext integral record:             0.00 MB

 For full I/O caching in triples, increase memory by 50.81 Mwords to 151.09 Mwords.

 Integral transformation finished. Total CPU:  11.98 sec, npass=  1  Memory used:  87.46 MW

 Reference energy:                   -263.78487576

 Adding F12 terms to K(Cij), methodcc=6,  factor=1.0

 ITER.      SQ.NORM     CORR.ENERGY   TOTAL ENERGY   ENERGY CHANGE        DEN1      VAR(S)    VAR(P)  DIIS     TIME
   1      1.20220361    -0.86293454  -264.64781030     0.01809980     0.04677714  0.72D-02  0.56D-02  1  1    27.75
   2      1.21653449    -0.85869199  -264.64356776     0.00424254    -0.02017908  0.86D-04  0.59D-03  2  2    35.46
   3      1.22189949    -0.85878704  -264.64366280    -0.00009504    -0.00236159  0.13D-03  0.33D-04  3  3    43.08
   4      1.22470737    -0.85865827  -264.64353403     0.00012877    -0.00141309  0.76D-05  0.41D-05  4  4    50.80
   5      1.22574135    -0.85862026  -264.64349602     0.00003801    -0.00036759  0.56D-06  0.29D-06  5  5    58.44
   6      1.22590420    -0.85859331  -264.64346907     0.00002695    -0.00000807  0.40D-07  0.24D-07  6  6    66.08
   7      1.22593375    -0.85859086  -264.64346662     0.00000245    -0.00000622  0.27D-08  0.41D-08  6  4    73.75
   8      1.22593413    -0.85859036  -264.64346612     0.00000050     0.00000193  0.40D-09  0.28D-09  6  1    81.24
   9      1.22593471    -0.85859043  -264.64346619    -0.00000007     0.00000058  0.28D-10  0.22D-10  6  2    88.92

 Norm of t1 vector:      0.10608408      S-energy:     0.00000073      T1 diagnostic:  0.01531192
                                                                       D1 diagnostic:  0.04500287

 Adding energy correction from Wij-K(Fij), methodcc=6  factor=1.0
 
  CCSD correlation energy              -0.858590430903
  MP2-F12 correction (uncoupled)       -0.092463643624
  C*T doubles correction               -0.001477890146
  f12b correction                       0.015404550051


 Total CPU time for triples:    198.74 sec


 RESULTS
 =======

  Reference energy                   -263.768942738130
  F12 singles correction               -0.015933023445

 F12 singles corrections added to reference energy

  New reference energy               -263.784875761575

  F12a singlet correction              -0.080406174115
  F12a triplet correction              -0.013535359655
  F12a total correction                -0.093941533770

 F12a corrections for ansatz F12/3C(FIX) added to CCSD energy
 
  CCSD-F12a singlet pair energy        -0.641961726610
  CCSD-F12a triplet pair energy        -0.310570971577
  CCSD-F12a correlation energy         -0.952531964673

  Triples (T) contribution             -0.037672246332
  Total correlation energy             -0.990204211005

  CCSD-F12a total energy             -264.737407726248
  CCSD[T]-F12a energy                -264.777630085667
  CCSD-T-F12a energy                 -264.774140215015
 !CCSD(T)-F12a total energy          -264.775079972580

 F12b corrections for ansatz F12/3C(FIX) added to CCSD(T)-F12a energy

  CCSD-F12b singlet pair energy        -0.627780285272
  CCSD-F12b triplet pair energy        -0.309347862863
  CCSD-F12b correlation energy         -0.937127414621

  Triples (T) contribution             -0.037672246332
  Total correlation energy             -0.974799660953

  CCSD-F12b total energy             -264.722003176197
  CCSD[T]-F12b energy                -264.762225535616
  CCSD-T-F12b energy                 -264.758735664963
 !CCSD(T)-F12b total energy          -264.759675422528

 Timing summary (sec):

 STEP                 CPU(USER)    SYS     CPU(TOT)    WALL
 Transformation         12.09      1.07     13.16     13.15
 CCSD iterations        68.54      2.73     71.27     71.23
 Triples               198.74      2.08    200.82    200.76
 MP2-F12                 8.31      1.19      9.50      9.50
 F12b energy             5.12      0.06      5.18      5.17

 Program statistics:

 Available memory in ccsd:                99998934
 Min. memory needed in ccsd:               8644845
 Max. memory used in ccsd:                11598633
 Max. memory used in cckext:               8768967 (10 integral passes)



 **********************************************************************************************************************************
 DATASETS  * FILE   NREC   LENGTH (MB)   RECORD NAMES
              1      20      527.84       500      610      700      900      950      970     1000      129      960     1100   
                                          VAR    BASINP    GEOM    SYMINP    ZMAT    AOBASIS   BASIS     P2S    ABASIS      S 
                                         1400     1410     1200     1210     1080     1600     1650     1700      960(1)  1380   
                                           T        V       H0       H01     AOSYM     SMH    MOLCAS    OPER    ABASIS    JKOP   

              2       5        2.50       700     1000     2100     7360     7350   
                                         GEOM     BASIS     RHF    F12ABS    EF12   

 PROGRAMS   *        TOTAL   CCSD(T)        HF       INT
 CPU TIMES  *       310.22    292.91      9.30      7.94
 REAL TIME  *       318.82 SEC
 DISK USED  *         2.98 GB      
 SF USED    *         1.91 GB      
 GA USED    *         2.40 MB       (max)       0.00 MB       (current)
 **********************************************************************************************************************************

     CCSD(T)-F12        HF-SCF  
   -264.75967542   -263.76894274
 **********************************************************************************************************************************
 Variable memory released
