
 Primary working directories    : /scratch/kee
 Secondary working directories  : /scratch/kee
 Wavefunction directory         : /home/kee/wfu/
 Main file repository           : /scratch/kee/

 ARCHNAME  : Linux/x86_64
 FC        : /opt/intel/composer_xe_2015.0.090/bin/intel64/ifort
 FCVERSION : 15.0.0
 BLASLIB   : -L/opt/intel/mkl/lib/intel64 -lmkl_intel_ilp64 -lmkl_sequential -lmkl_core
 id        : emory

 Nodes     nprocs
 node22       3
 Number of processes for MPI-2 version of Molpro:   nprocs(total)=    4   nprocs(compute)=    3   nprocs(helper)=    1
 ga_uses_ma=false, calling ma_init with nominal heap.
 GA-space will be limited to   8.0 MW (determined by -G option)

 Using customized tuning parameters: mindgm=7; mindgv=32; mindgc=1; mindgr=1; noblas=0; mincuda=1000; minvec=7
 default implementation of scratch files=sf  

 ***,co2h2o
 memory,100,m
 basis avtz
 geomtype = xyz
 geometry = {
 6
       0.00000777
 O    10.97257393   -1.10347931    0.00000000
 O    11.76744404    1.08065151   -0.00000000
 O     4.99356282    0.00000000    0.00000000
 H     4.24556774    0.58340495    0.10287003
 H     5.74598802    0.58686026    0.10347930
 C    11.34356282    0.00000000    0.00000000
 }
 hf
 ccsd(t)-f12
 ---

 Variables initialized (665), CPU time= 0.00 sec
 Commands  initialized (462), CPU time= 0.01 sec, 486 directives.
 Default parameters read. Elapsed time= 0.04 sec

 Checking input...
 Passed
1


                                         ***  PROGRAM SYSTEM MOLPRO  ***
                         Copyright, University College Cardiff Consultants Limited, 2008

                                    Version 2010.1 linked 9 Dec 2014 15:06:28 


 **********************************************************************************************************************************
 LABEL *   co2h2o                                                                        
 Linux-2.6.32-504.el6.x86_64/node22(x86_64) 64 bit mpp version                           DATE: 18-Jan-17          TIME: 22:01:13  
 **********************************************************************************************************************************

 Patch level:      19
 **********************************************************************************************************************************

 Variable memory set to  100000000 words,  buffer space   230000 words

 SETTING BASIS          =    AVTZ
 SETTING GEOMTYPE       =    XYZ

Geometry recognized as XYZ



 Recomputing integrals since basis changed


 Using spherical harmonics

 Library entry O      S aug-cc-pVTZ          selected for orbital group  1
 Library entry O      P aug-cc-pVTZ          selected for orbital group  1
 Library entry O      D aug-cc-pVTZ          selected for orbital group  1
 Library entry O      F aug-cc-pVTZ          selected for orbital group  1
 Library entry H      S aug-cc-pVTZ          selected for orbital group  2
 Library entry H      P aug-cc-pVTZ          selected for orbital group  2
 Library entry H      D aug-cc-pVTZ          selected for orbital group  2
 Library entry C      S aug-cc-pVTZ          selected for orbital group  3
 Library entry C      P aug-cc-pVTZ          selected for orbital group  3
 Library entry C      D aug-cc-pVTZ          selected for orbital group  3
 Library entry C      F aug-cc-pVTZ          selected for orbital group  3

1PROGRAM * SEWARD (Integral evaluation for generally contracted gaussian basis sets)     Author: Roland Lindh, 1990

 Geometry written to block  1 of record 700


 Point group  C1  



 ATOMIC COORDINATES

 NR  ATOM    CHARGE       X              Y              Z

   1  O       8.00   20.735159684   -2.085273688    0.000000000
   2  O       8.00   22.237246502    2.042135397    0.000000000
   3  O       8.00    9.436466150    0.000000000    0.000000000
   4  H       1.00    8.022960301    1.102475579    0.194396184
   5  H       1.00   10.858343712    1.109005169    0.195547537
   6  C       6.00   21.436227084    0.000000000    0.000000000

 Bond lengths in Bohr (Angstrom)

 1-6  2.199968602  2-6  2.193615529  3-4  1.803119814  3-5  1.813799081
     (1.164173245)     (1.160811343)     (0.954169911)     (0.959821135)

 Bond angles

  1-6-2  177.16520951   4-3-5  103.24222917

 NUCLEAR CHARGE:                   32
 NUMBER OF PRIMITIVE AOS:         322
 NUMBER OF SYMMETRY AOS:          282
 NUMBER OF CONTRACTIONS:          230   ( 230A   )
 NUMBER OF CORE ORBITALS:           4   (   4A   )
 NUMBER OF VALENCE ORBITALS:       18   (  18A   )


 NUCLEAR REPULSION ENERGY   85.63186906


 Eigenvalues of metric

         1 0.346E-03 0.354E-03 0.379E-03 0.396E-03 0.899E-03 0.922E-03 0.158E-02 0.172E-02


 Contracted 2-electron integrals neglected if value below      1.0D-11
 AO integral compression algorithm  1   Integral accuracy      1.0D-11

     575.668 MB (compressed) written to integral file ( 18.6%)

     Node minimum: 184.549 MB, node maximum: 196.084 MB


 NUMBER OF SORTED TWO-ELECTRON INTEGRALS:  117629820.     BUFFER LENGTH:  32768
 NUMBER OF SEGMENTS:   8  SEGMENT LENGTH:   15997437      RECORD LENGTH: 524288

 Memory used in sort:      16.55 MW

 SORT1 READ   386171682. AND WROTE    42549060. INTEGRALS IN    126 RECORDS. CPU TIME:     3.32 SEC, REAL TIME:     3.78 SEC
 SORT2 READ   127469013. AND WROTE   352862895. INTEGRALS IN   2112 RECORDS. CPU TIME:     1.16 SEC, REAL TIME:     1.53 SEC

 Node minimum:   117612110.  Node maximum:   117629820. integrals

 OPERATOR DM      FOR CENTER  0  COORDINATES:    0.000000    0.000000    0.000000


 **********************************************************************************************************************************
 DATASETS  * FILE   NREC   LENGTH (MB)   RECORD NAMES
              1      18        4.62       500      610      700      900      950      970     1000      129      960     1100   
                                          VAR    BASINP    GEOM    SYMINP    ZMAT    AOBASIS   BASIS     P2S    ABASIS      S 
                                         1400     1410     1200     1210     1080     1600     1650     1700   
                                           T        V       H0       H01     AOSYM     SMH    MOLCAS    OPER   

 PROGRAMS   *        TOTAL       INT
 CPU TIMES  *         7.86      7.79
 REAL TIME  *         8.91 SEC
 DISK USED  *         2.05 GB      
 GA USED    *         0.00 MB       (max)       0.00 MB       (current)
 **********************************************************************************************************************************

1PROGRAM * RHF-SCF (CLOSED SHELL)       Authors: W. Meyer, H.-J. Werner


 NUMBER OF ELECTRONS:      16+   16-    SPACE SYMMETRY=1    SPIN SYMMETRY=Singlet 
 CONVERGENCE THRESHOLDS:    1.00E-05 (Density)    1.00E-07 (Energy)
 MAX. NUMBER OF ITERATIONS:       60
 INTERPOLATION TYPE:            DIIS
 INTERPOLATION STEPS:              2 (START)      1 (STEP)
 LEVEL SHIFTS:                  0.00 (CLOSED)  0.00 (OPEN) 



 Orbital guess generated from atomic densities. Full valence occupancy:   22

 Molecular orbital dump at record        2100.2

 ITERATION    DDIFF          GRAD             ENERGY        2-EL.EN.            DIPOLE MOMENTS         DIIS
    1      0.000D+00      0.000D+00      -263.65906115    366.583693   -0.06886    1.17032    0.19888    0
    2      0.000D+00      0.470D-02      -263.72465398    362.088678   -0.01506    0.65748    0.11600    1
    3      0.753D-02      0.320D-02      -263.76838565    364.634867   -0.03411    0.79060    0.13586    2
    4      0.310D-02      0.300D-03      -263.76888278    364.421654   -0.03395    0.79122    0.13676    3
    5      0.356D-03      0.877D-04      -263.76894152    364.425220   -0.03320    0.78833    0.13577    4
    6      0.134D-03      0.357D-04      -263.76894886    364.439520   -0.03359    0.78752    0.13592    5
    7      0.445D-04      0.894D-05      -263.76894962    364.431586   -0.03335    0.78788    0.13584    6
    8      0.147D-04      0.245D-05      -263.76894967    364.432363   -0.03353    0.78740    0.13584    7
    9      0.412D-05      0.166D-05      -263.76894968    364.432646   -0.03340    0.78776    0.13584    0

 Final occupancy:  16

 !RHF STATE 1.1 Energy               -263.768949677996
 Nuclear energy                        85.63186906
 One-electron energy                 -531.61714190
 Two-electron energy                  182.21632316
 Virial quotient                       -1.00179712
 !RHF STATE 1.1 Dipole moment          -0.03340001     0.78775796     0.13584306
 Dipole moment /Debye                  -0.08488879     2.00214986     0.34525600

 Orbital energies:

         1.1          2.1          3.1          4.1          5.1          6.1          7.1          8.1          9.1         10.1
    -20.655028   -20.653600   -20.568739   -11.463115    -1.531846    -1.478499    -1.355701    -0.802109    -0.744163    -0.716545

        11.1         12.1         13.1         14.1         15.1         16.1         17.1         18.1
     -0.715882    -0.715838    -0.588464    -0.545495    -0.545460    -0.511765     0.026588     0.041798


 **********************************************************************************************************************************
 DATASETS  * FILE   NREC   LENGTH (MB)   RECORD NAMES
              1      18        4.62       500      610      700      900      950      970     1000      129      960     1100   
                                          VAR    BASINP    GEOM    SYMINP    ZMAT    AOBASIS   BASIS     P2S    ABASIS      S 
                                         1400     1410     1200     1210     1080     1600     1650     1700   
                                           T        V       H0       H01     AOSYM     SMH    MOLCAS    OPER   

              2       3        1.44       700     1000     2100   
                                         GEOM     BASIS     RHF  

 PROGRAMS   *        TOTAL        HF       INT
 CPU TIMES  *        17.17      9.31      7.79
 REAL TIME  *        18.50 SEC
 DISK USED  *         2.09 GB      
 SF USED    *         0.21 MB      
 GA USED    *         0.00 MB       (max)       0.00 MB       (current)
 **********************************************************************************************************************************


1PROGRAM * CCSD (Closed-shell coupled cluster)     Authors: C. Hampel, H.-J. Werner, 1991, M. Deegan, P.J. Knowles, 1992

                                  CCSD-F12 implementation by  H.-J. Werner, 2007

                   Density fitting integral evaluation by F.R. Manby, 2003,2007, G. Knizia, 2010

 Basis set CC-PVTZ/JKFIT generated.      Number of basis functions:   376 
 Basis set AUG-CC-PVTZ/MP2FIT generated. Number of basis functions:   516 

 Convergence thresholds:  THRVAR = 1.00D-08  THRDEN = 1.00D-06

 CCSD(T)     terms to be evaluated (factor= 1.000)


 Number of core orbitals:           4 (   4 )
 Number of closed-shell orbitals:  12 (  12 )
 Number of external orbitals:     214 ( 214 )

 Molecular orbitals read from record     2100.2  Type=RHF/CANONICAL (state 1.1)

 MP2-F12 correlation treatment (H.-J. Werner, 2006)
 --------------------------------------------------

 Using MP2-F12 with ansatz 3C(FIX)

 Using projected zeroth-order Hamiltonian (+Z)

 FOCKRIB=T FOCKRIC=T FOCKRIP=T CABSP=T CABSA=T CABSK=T CABSF=T GBC=F EBC=F DMAT=T NOFIK=T NOPAO=1 SOLVE=-1  USEPAO=0
 EXCH_A= T EXCH_B= F EXCH_C= F EXCH_P= F
 
 Geminal basis:    OPTFULL  GEM_TYPE=SLATER  BETA=1.0  NGEM=6

 Optimizing Gaussian exponents for each gem_beta

 Geminal optimization for beta= 1.0000
 Weight function:   m=0, omega= 1.4646

 Augmented Hessian optimization of geminal fit. Trust ratio= 0.40000
 Convergence reached after   2 iterations. Final gradient= 8.24D-16, Step= 4.32D-06, Delta= 1.28D-09
 
 Alpha:                 0.19532     0.81920     2.85917     9.50073    35.69989   197.79328
 Coeff:                 0.27070     0.30552     0.18297     0.10986     0.06810     0.04224
 

 All pairs explicitly correlated. Number of r12-pairs:           78
 
 AO(A)-basis ORBITAL           loaded. Number of functions:     230
 RI(R)-basis CC-PVTZ/JKFIT     loaded. Number of functions:     376
 DF-basis CC-PVTZ/JKFIT        loaded. Number of functions:     376

 Screening thresholds:   THRAO=  1.00D-10  THRMO=  1.00D-09  THRPROD=  1.00D-09
                         THRSW=  1.00D-05  THROV=  1.00D-12  THRF12=   1.00D-08

 CPU time for Fock operators                      0.90 sec
 
 Construction of ABS:
 Smallest eigenvalue of S          2.58E-04  (threshold= 1.00E-08)
 Ratio eigmin/eigmax               1.84E-06  (threshold= 1.00E-09)
 Smallest eigenvalue of S kept     2.58E-04  (threshold= 2.58E-04, 0 functions deleted, 376 kept)
 
 Construction of CABS:
 Smallest eigenvalue of S          2.30E-08  (threshold= 1.00E-08)
 Ratio eigmin/eigmax               2.30E-08  (threshold= 1.00E-09)
 Smallest eigenvalue of S kept     2.30E-08  (threshold= 2.30E-08, 0 functions deleted, 376 kept)
 
 CPU time for CABS singles                        0.17 sec

 CABS-singles contribution of  -0.01593300 patched into reference energy.
 New reference energy        -263.78488268
 
 AO(A)-basis ORBITAL           loaded. Number of functions:     230
 RI(R)-basis CC-PVTZ/JKFIT     loaded. Number of functions:     376
 DF-basis AUG-CC-PVTZ/MP2FIT   loaded. Number of functions:     516

 Screening thresholds:   THRAO=  1.00D-10  THRMO=  1.00D-09  THRPROD=  1.00D-09
                         THRSW=  1.00D-05  THROV=  1.00D-12  THRF12=   1.00D-08

 CPU time for 3-index integral evaluation         1.92 sec
 CPU time for first  half transformation          0.24 sec (11390.4 MFLOP/sec)
 CPU time for second half transformation          0.03 sec ( 3432.9 MFLOP/sec)
 CPU time for sorting                             0.17 sec
 CPU time for fitting                             0.05 sec (27861.0 MFLOP/sec)
 CPU time for tilde quantities                    0.07 sec (26412.6 MFLOP/sec)
 CPU time for assembly                            0.76 sec (30337.7 MFLOP/sec)
 CPU time for tranop_f12                          0.87 sec (34518.3 MFLOP/sec)
 CPU time for f12 integrals (total)               6.09 sec
 F12-matrices built in  3 passes.
 F12-matrices built in  3 passes.
 F12-matrices built in  3 passes.
 F12-matrices built in  3 passes.
 FC-matrix built in  3 passes.
 CPU time for f12 matrices (total)                0.45 sec

 Diagonal F12 approximation with fixed coefficients:  TSING= 0.500,  TTRIP= 0.250 (scaled by -1/beta)

 DF-MP2-F12 energy corrections:
 ------------------------------
 Approx.                                    Singlet             Triplet             Total
 DF-MP2-F12/3*C(DX,FIX)                -0.097434377116     -0.016932059239     -0.114366436354
 DF-MP2-F12/3*C(FIX)                   -0.079844294699     -0.013393377430     -0.093237672129
 DF-MP2-F12/3C(FIX)                    -0.080206153966     -0.013417460682     -0.093623614648

 DF-MP2-F12 correlation energies:
 --------------------------------
 Approx.                                    Singlet             Triplet             Ecorr            Total Energy
 DF-MP2                                -0.537834878624     -0.343179429822     -0.881014308446   -264.665896988062
 DF-MP2-F12/3*C(DX,FIX)                -0.635269255740     -0.360111489061     -0.995380744800   -264.780263424416
 DF-MP2-F12/3*C(FIX)                   -0.617679173323     -0.356572807252     -0.974251980575   -264.759134660191
 DF-MP2-F12/3C(FIX)                    -0.618041032590     -0.356596890504     -0.974637923094   -264.759520602710

 SCS-DF-MP2 energies (F_SING= 1.20000  F_TRIP= 0.62222  F_PARALLEL= 0.33333):
 ----------------------------------------------------------------------------
 SCS-DF-MP2                            -0.858935721794   -264.643818401410
 SCS-DF-MP2-F12/3*C(DX,FIX)            -0.986392477859   -264.771275157475
 SCS-DF-MP2-F12/3*C(FIX)               -0.963082532500   -264.747965212117
 SCS-DF-MP2-F12/3C(FIX)                -0.963531748755   -264.748414428371
 Symmetry transformation completed.

 Number of N-1 electron functions:              12
 Number of N-2 electron functions:              78
 Number of singly external CSFs:              2568
 Number of doubly external CSFs:           3298596
 Total number of CSFs:                     3301165

 Pair and operator lists are different

 Length of J-op  integral file:             474.22 MB
 Length of K-op  integral file:             572.29 MB
 Length of 3-ext integral record:             0.00 MB

 For full I/O caching in triples, increase memory by 50.81 Mwords to 151.09 Mwords.

 Integral transformation finished. Total CPU:  12.02 sec, npass=  1  Memory used:  87.46 MW

 Reference energy:                   -263.78488268

 Adding F12 terms to K(Cij), methodcc=6,  factor=1.0

 ITER.      SQ.NORM     CORR.ENERGY   TOTAL ENERGY   ENERGY CHANGE        DEN1      VAR(S)    VAR(P)  DIIS     TIME
   1      1.20220226    -0.86293127  -264.64781395     0.01809927     0.04677615  0.72D-02  0.56D-02  1  1    27.70
   2      1.21653286    -0.85868882  -264.64357150     0.00424245    -0.02017873  0.86D-04  0.59D-03  2  2    35.55
   3      1.22189782    -0.85878386  -264.64366654    -0.00009504    -0.00236161  0.13D-03  0.33D-04  3  3    43.93
   4      1.22470563    -0.85865510  -264.64353778     0.00012876    -0.00141307  0.76D-05  0.41D-05  4  4    51.62
   5      1.22573958    -0.85861709  -264.64349977     0.00003801    -0.00036759  0.56D-06  0.29D-06  5  5    59.25
   6      1.22590243    -0.85859014  -264.64347282     0.00002695    -0.00000807  0.40D-07  0.24D-07  6  6    66.91
   7      1.22593197    -0.85858770  -264.64347038     0.00000245    -0.00000622  0.27D-08  0.41D-08  6  4    74.58
   8      1.22593235    -0.85858720  -264.64346988     0.00000050     0.00000193  0.40D-09  0.28D-09  6  1    81.96
   9      1.22593294    -0.85858726  -264.64346994    -0.00000007     0.00000058  0.28D-10  0.22D-10  6  2    89.37

 Norm of t1 vector:      0.10608329      S-energy:     0.00000072      T1 diagnostic:  0.01531180
                                                                       D1 diagnostic:  0.04500299

 Adding energy correction from Wij-K(Fij), methodcc=6  factor=1.0
 
  CCSD correlation energy              -0.858587264092
  MP2-F12 correction (uncoupled)       -0.092464211845
  C*T doubles correction               -0.001477872755
  f12b correction                       0.015404584449


 Total CPU time for triples:    193.75 sec


 RESULTS
 =======

  Reference energy                   -263.768949677996
  F12 singles correction               -0.015933001620

 F12 singles corrections added to reference energy

  New reference energy               -263.784882679616

  F12a singlet correction              -0.080406647424
  F12a triplet correction              -0.013535437177
  F12a total correction                -0.093942084600

 F12a corrections for ansatz F12/3C(FIX) added to CCSD energy
 
  CCSD-F12a singlet pair energy        -0.641960545764
  CCSD-F12a triplet pair energy        -0.310569523055
  CCSD-F12a correlation energy         -0.952529348693

  Triples (T) contribution             -0.037671673215
  Total correlation energy             -0.990201021907

  CCSD-F12a total energy             -264.737412028309
  CCSD[T]-F12a energy                -264.777633759521
  CCSD-T-F12a energy                 -264.774143964894
 !CCSD(T)-F12a total energy          -264.775083701523

 F12b corrections for ansatz F12/3C(FIX) added to CCSD(T)-F12a energy

  CCSD-F12b singlet pair energy        -0.627779071057
  CCSD-F12b triplet pair energy        -0.309346413312
  CCSD-F12b correlation energy         -0.937124764243

  Triples (T) contribution             -0.037671673215
  Total correlation energy             -0.974796437458

  CCSD-F12b total energy             -264.722007443859
  CCSD[T]-F12b energy                -264.762229175072
  CCSD-T-F12b energy                 -264.758739380445
 !CCSD(T)-F12b total energy          -264.759679117074

 Timing summary (sec):

 STEP                 CPU(USER)    SYS     CPU(TOT)    WALL
 Transformation         12.13      1.11     13.24     13.24
 CCSD iterations        69.13      2.80     71.93     71.89
 Triples               193.75      2.21    195.96    195.87
 MP2-F12                 8.14      1.25      9.39      9.39
 F12b energy             4.91      0.04      4.95      4.95

 Program statistics:

 Available memory in ccsd:                99998934
 Min. memory needed in ccsd:               8644845
 Max. memory used in ccsd:                11598633
 Max. memory used in cckext:               8768967 (10 integral passes)



 **********************************************************************************************************************************
 DATASETS  * FILE   NREC   LENGTH (MB)   RECORD NAMES
              1      20      527.84       500      610      700      900      950      970     1000      129      960     1100   
                                          VAR    BASINP    GEOM    SYMINP    ZMAT    AOBASIS   BASIS     P2S    ABASIS      S 
                                         1400     1410     1200     1210     1080     1600     1650     1700      960(1)  1380   
                                           T        V       H0       H01     AOSYM     SMH    MOLCAS    OPER    ABASIS    JKOP   

              2       5        2.50       700     1000     2100     7360     7350   
                                         GEOM     BASIS     RHF    F12ABS    EF12   

 PROGRAMS   *        TOTAL   CCSD(T)        HF       INT
 CPU TIMES  *       305.34    288.17      9.31      7.79
 REAL TIME  *       314.24 SEC
 DISK USED  *         2.95 GB      
 SF USED    *         1.91 GB      
 GA USED    *         2.40 MB       (max)       0.00 MB       (current)
 **********************************************************************************************************************************

     CCSD(T)-F12        HF-SCF  
   -264.75967912   -263.76894968
 **********************************************************************************************************************************
 Variable memory released
