
 Primary working directories    : /scratch/kee
 Secondary working directories  : /scratch/kee
 Wavefunction directory         : /home/kee/wfu/
 Main file repository           : /scratch/kee/

 ARCHNAME  : Linux/x86_64
 FC        : /opt/intel/composer_xe_2015.0.090/bin/intel64/ifort
 FCVERSION : 15.0.0
 BLASLIB   : -L/opt/intel/mkl/lib/intel64 -lmkl_intel_ilp64 -lmkl_sequential -lmkl_core
 id        : emory

 Nodes     nprocs
 node22       3
 Number of processes for MPI-2 version of Molpro:   nprocs(total)=    4   nprocs(compute)=    3   nprocs(helper)=    1
 ga_uses_ma=false, calling ma_init with nominal heap.
 GA-space will be limited to   8.0 MW (determined by -G option)

 Using customized tuning parameters: mindgm=7; mindgv=32; mindgc=1; mindgr=1; noblas=0; mincuda=1000; minvec=7
 default implementation of scratch files=sf  

 ***,co2h2o
 memory,100,m
 basis avtz
 geomtype = xyz
 geometry = {
 6
       0.00000777
 O    10.97257393   -1.10347931    0.00000000
 O    11.76744404    1.08065151   -0.00000000
 O     5.59356282    0.00000000    0.00000000
 H     4.84556774    0.58340495    0.10287003
 H     6.34598802    0.58686026    0.10347930
 C    11.34356282    0.00000000    0.00000000
 }
 hf
 ccsd(t)-f12
 ---

 Variables initialized (665), CPU time= 0.00 sec
 Commands  initialized (462), CPU time= 0.01 sec, 486 directives.
 Default parameters read. Elapsed time= 0.04 sec

 Checking input...
 Passed
1


                                         ***  PROGRAM SYSTEM MOLPRO  ***
                         Copyright, University College Cardiff Consultants Limited, 2008

                                    Version 2010.1 linked 9 Dec 2014 15:06:28 


 **********************************************************************************************************************************
 LABEL *   co2h2o                                                                        
 Linux-2.6.32-504.el6.x86_64/node22(x86_64) 64 bit mpp version                           DATE: 18-Jan-17          TIME: 20:54:08  
 **********************************************************************************************************************************

 Patch level:      19
 **********************************************************************************************************************************

 Variable memory set to  100000000 words,  buffer space   230000 words

 SETTING BASIS          =    AVTZ
 SETTING GEOMTYPE       =    XYZ

Geometry recognized as XYZ



 Recomputing integrals since basis changed


 Using spherical harmonics

 Library entry O      S aug-cc-pVTZ          selected for orbital group  1
 Library entry O      P aug-cc-pVTZ          selected for orbital group  1
 Library entry O      D aug-cc-pVTZ          selected for orbital group  1
 Library entry O      F aug-cc-pVTZ          selected for orbital group  1
 Library entry H      S aug-cc-pVTZ          selected for orbital group  2
 Library entry H      P aug-cc-pVTZ          selected for orbital group  2
 Library entry H      D aug-cc-pVTZ          selected for orbital group  2
 Library entry C      S aug-cc-pVTZ          selected for orbital group  3
 Library entry C      P aug-cc-pVTZ          selected for orbital group  3
 Library entry C      D aug-cc-pVTZ          selected for orbital group  3
 Library entry C      F aug-cc-pVTZ          selected for orbital group  3

1PROGRAM * SEWARD (Integral evaluation for generally contracted gaussian basis sets)     Author: Roland Lindh, 1990

 Geometry written to block  1 of record 700


 Point group  C1  



 ATOMIC COORDINATES

 NR  ATOM    CHARGE       X              Y              Z

   1  O       8.00   20.735159684   -2.085273688    0.000000000
   2  O       8.00   22.237246502    2.042135397    0.000000000
   3  O       8.00   10.570301829    0.000000000    0.000000000
   4  H       1.00    9.156795980    1.102475579    0.194396184
   5  H       1.00   11.992179391    1.109005169    0.195547537
   6  C       6.00   21.436227084    0.000000000    0.000000000

 Bond lengths in Bohr (Angstrom)

 1-6  2.199968602  2-6  2.193615529  3-4  1.803119814  3-5  1.813799081
     (1.164173245)     (1.160811343)     (0.954169911)     (0.959821135)

 Bond angles

  1-6-2  177.16520951   4-3-5  103.24222917

 NUCLEAR CHARGE:                   32
 NUMBER OF PRIMITIVE AOS:         322
 NUMBER OF SYMMETRY AOS:          282
 NUMBER OF CONTRACTIONS:          230   ( 230A   )
 NUMBER OF CORE ORBITALS:           4   (   4A   )
 NUMBER OF VALENCE ORBITALS:       18   (  18A   )


 NUCLEAR REPULSION ENERGY   87.49032605


 Eigenvalues of metric

         1 0.332E-03 0.347E-03 0.375E-03 0.394E-03 0.899E-03 0.921E-03 0.146E-02 0.169E-02


 Contracted 2-electron integrals neglected if value below      1.0D-11
 AO integral compression algorithm  1   Integral accuracy      1.0D-11

     641.204 MB (compressed) written to integral file ( 20.1%)

     Node minimum: 202.113 MB, node maximum: 230.949 MB


 NUMBER OF SORTED TWO-ELECTRON INTEGRALS:  117629820.     BUFFER LENGTH:  32768
 NUMBER OF SEGMENTS:   8  SEGMENT LENGTH:   15997437      RECORD LENGTH: 524288

 Memory used in sort:      16.55 MW

 SORT1 READ   399916527. AND WROTE    48710829. INTEGRALS IN    142 RECORDS. CPU TIME:     3.66 SEC, REAL TIME:     4.16 SEC
 SORT2 READ   146168667. AND WROTE   352862895. INTEGRALS IN   2313 RECORDS. CPU TIME:     1.34 SEC, REAL TIME:     1.74 SEC

 Node minimum:   117612110.  Node maximum:   117629820. integrals

 OPERATOR DM      FOR CENTER  0  COORDINATES:    0.000000    0.000000    0.000000


 **********************************************************************************************************************************
 DATASETS  * FILE   NREC   LENGTH (MB)   RECORD NAMES
              1      18        4.62       500      610      700      900      950      970     1000      129      960     1100   
                                          VAR    BASINP    GEOM    SYMINP    ZMAT    AOBASIS   BASIS     P2S    ABASIS      S 
                                         1400     1410     1200     1210     1080     1600     1650     1700   
                                           T        V       H0       H01     AOSYM     SMH    MOLCAS    OPER   

 PROGRAMS   *        TOTAL       INT
 CPU TIMES  *         8.66      8.60
 REAL TIME  *         9.79 SEC
 DISK USED  *         2.34 GB      
 GA USED    *         0.00 MB       (max)       0.00 MB       (current)
 **********************************************************************************************************************************

1PROGRAM * RHF-SCF (CLOSED SHELL)       Authors: W. Meyer, H.-J. Werner


 NUMBER OF ELECTRONS:      16+   16-    SPACE SYMMETRY=1    SPIN SYMMETRY=Singlet 
 CONVERGENCE THRESHOLDS:    1.00E-05 (Density)    1.00E-07 (Energy)
 MAX. NUMBER OF ITERATIONS:       60
 INTERPOLATION TYPE:            DIIS
 INTERPOLATION STEPS:              2 (START)      1 (STEP)
 LEVEL SHIFTS:                  0.00 (CLOSED)  0.00 (OPEN) 



 Orbital guess generated from atomic densities. Full valence occupancy:   22

 Molecular orbital dump at record        2100.2

 ITERATION    DDIFF          GRAD             ENERGY        2-EL.EN.            DIPOLE MOMENTS         DIIS
    1      0.000D+00      0.000D+00      -263.65882106    370.278531   -0.06882    1.17027    0.19888    0
    2      0.000D+00      0.470D-02      -263.72445677    365.790993   -0.01704    0.65072    0.11546    1
    3      0.753D-02      0.320D-02      -263.76827892    368.335385   -0.03467    0.78701    0.13549    2
    4      0.311D-02      0.300D-03      -263.76877631    368.122138   -0.03476    0.78686    0.13640    3
    5      0.356D-03      0.879D-04      -263.76883516    368.125849   -0.03382    0.78449    0.13540    4
    6      0.134D-03      0.358D-04      -263.76884255    368.140121   -0.03433    0.78335    0.13555    5
    7      0.446D-04      0.906D-05      -263.76884331    368.132312   -0.03403    0.78386    0.13548    6
    8      0.149D-04      0.262D-05      -263.76884337    368.132930   -0.03424    0.78332    0.13548    7
    9      0.419D-05      0.174D-05      -263.76884338    368.133328   -0.03410    0.78369    0.13548    0

 Final occupancy:  16

 !RHF STATE 1.1 Energy               -263.768843377095
 Nuclear energy                        87.49032605
 One-electron energy                 -535.32583331
 Two-electron energy                  184.06666388
 Virial quotient                       -1.00179601
 !RHF STATE 1.1 Dipole moment          -0.03410343     0.78369495     0.13547581
 Dipole moment /Debye                  -0.08667659     1.99182340     0.34432262

 Orbital energies:

         1.1          2.1          3.1          4.1          5.1          6.1          7.1          8.1          9.1         10.1
    -20.655307   -20.653776   -20.569084   -11.463307    -1.532079    -1.478711    -1.356040    -0.802302    -0.744336    -0.716906

        11.1         12.1         13.1         14.1         15.1         16.1         17.1         18.1
     -0.716128    -0.716057    -0.588771    -0.545692    -0.545664    -0.512093     0.026643     0.042670


 **********************************************************************************************************************************
 DATASETS  * FILE   NREC   LENGTH (MB)   RECORD NAMES
              1      18        4.62       500      610      700      900      950      970     1000      129      960     1100   
                                          VAR    BASINP    GEOM    SYMINP    ZMAT    AOBASIS   BASIS     P2S    ABASIS      S 
                                         1400     1410     1200     1210     1080     1600     1650     1700   
                                           T        V       H0       H01     AOSYM     SMH    MOLCAS    OPER   

              2       3        1.44       700     1000     2100   
                                         GEOM     BASIS     RHF  

 PROGRAMS   *        TOTAL        HF       INT
 CPU TIMES  *        18.66     10.00      8.60
 REAL TIME  *        20.08 SEC
 DISK USED  *         2.38 GB      
 SF USED    *         0.21 MB      
 GA USED    *         0.00 MB       (max)       0.00 MB       (current)
 **********************************************************************************************************************************


1PROGRAM * CCSD (Closed-shell coupled cluster)     Authors: C. Hampel, H.-J. Werner, 1991, M. Deegan, P.J. Knowles, 1992

                                  CCSD-F12 implementation by  H.-J. Werner, 2007

                   Density fitting integral evaluation by F.R. Manby, 2003,2007, G. Knizia, 2010

 Basis set CC-PVTZ/JKFIT generated.      Number of basis functions:   376 
 Basis set AUG-CC-PVTZ/MP2FIT generated. Number of basis functions:   516 

 Convergence thresholds:  THRVAR = 1.00D-08  THRDEN = 1.00D-06

 CCSD(T)     terms to be evaluated (factor= 1.000)


 Number of core orbitals:           4 (   4 )
 Number of closed-shell orbitals:  12 (  12 )
 Number of external orbitals:     214 ( 214 )

 Molecular orbitals read from record     2100.2  Type=RHF/CANONICAL (state 1.1)

 MP2-F12 correlation treatment (H.-J. Werner, 2006)
 --------------------------------------------------

 Using MP2-F12 with ansatz 3C(FIX)

 Using projected zeroth-order Hamiltonian (+Z)

 FOCKRIB=T FOCKRIC=T FOCKRIP=T CABSP=T CABSA=T CABSK=T CABSF=T GBC=F EBC=F DMAT=T NOFIK=T NOPAO=1 SOLVE=-1  USEPAO=0
 EXCH_A= T EXCH_B= F EXCH_C= F EXCH_P= F
 
 Geminal basis:    OPTFULL  GEM_TYPE=SLATER  BETA=1.0  NGEM=6

 Optimizing Gaussian exponents for each gem_beta

 Geminal optimization for beta= 1.0000
 Weight function:   m=0, omega= 1.4646

 Augmented Hessian optimization of geminal fit. Trust ratio= 0.40000
 Convergence reached after   2 iterations. Final gradient= 8.24D-16, Step= 4.32D-06, Delta= 1.28D-09
 
 Alpha:                 0.19532     0.81920     2.85917     9.50073    35.69989   197.79328
 Coeff:                 0.27070     0.30552     0.18297     0.10986     0.06810     0.04224
 

 All pairs explicitly correlated. Number of r12-pairs:           78
 
 AO(A)-basis ORBITAL           loaded. Number of functions:     230
 RI(R)-basis CC-PVTZ/JKFIT     loaded. Number of functions:     376
 DF-basis CC-PVTZ/JKFIT        loaded. Number of functions:     376

 Screening thresholds:   THRAO=  1.00D-10  THRMO=  1.00D-09  THRPROD=  1.00D-09
                         THRSW=  1.00D-05  THROV=  1.00D-12  THRF12=   1.00D-08

 CPU time for Fock operators                      0.90 sec
 
 Construction of ABS:
 Smallest eigenvalue of S          2.58E-04  (threshold= 1.00E-08)
 Ratio eigmin/eigmax               1.84E-06  (threshold= 1.00E-09)
 Smallest eigenvalue of S kept     2.58E-04  (threshold= 2.58E-04, 0 functions deleted, 376 kept)
 
 Construction of CABS:
 Smallest eigenvalue of S          2.30E-08  (threshold= 1.00E-08)
 Ratio eigmin/eigmax               2.30E-08  (threshold= 1.00E-09)
 Smallest eigenvalue of S kept     2.30E-08  (threshold= 2.30E-08, 0 functions deleted, 376 kept)
 
 CPU time for CABS singles                        0.14 sec

 CABS-singles contribution of  -0.01593291 patched into reference energy.
 New reference energy        -263.78477629
 
 AO(A)-basis ORBITAL           loaded. Number of functions:     230
 RI(R)-basis CC-PVTZ/JKFIT     loaded. Number of functions:     376
 DF-basis AUG-CC-PVTZ/MP2FIT   loaded. Number of functions:     516

 Screening thresholds:   THRAO=  1.00D-10  THRMO=  1.00D-09  THRPROD=  1.00D-09
                         THRSW=  1.00D-05  THROV=  1.00D-12  THRF12=   1.00D-08

 CPU time for 3-index integral evaluation         2.10 sec
 CPU time for first  half transformation          0.25 sec (11301.4 MFLOP/sec)
 CPU time for second half transformation          0.02 sec ( 5151.9 MFLOP/sec)
 CPU time for sorting                             0.13 sec
 CPU time for fitting                             0.05 sec (27861.0 MFLOP/sec)
 CPU time for tilde quantities                    0.05 sec (36977.6 MFLOP/sec)
 CPU time for assembly                            0.75 sec (31528.6 MFLOP/sec)
 CPU time for tranop_f12                          0.82 sec (37021.9 MFLOP/sec)
 CPU time for f12 integrals (total)               6.19 sec
 F12-matrices built in  3 passes.
 F12-matrices built in  3 passes.
 F12-matrices built in  3 passes.
 F12-matrices built in  3 passes.
 FC-matrix built in  3 passes.
 CPU time for f12 matrices (total)                0.49 sec

 Diagonal F12 approximation with fixed coefficients:  TSING= 0.500,  TTRIP= 0.250 (scaled by -1/beta)

 DF-MP2-F12 energy corrections:
 ------------------------------
 Approx.                                    Singlet             Triplet             Total
 DF-MP2-F12/3*C(DX,FIX)                -0.097425122843     -0.016930470385     -0.114355593228
 DF-MP2-F12/3*C(FIX)                   -0.079836122269     -0.013391980804     -0.093228103073
 DF-MP2-F12/3C(FIX)                    -0.080198422421     -0.013416426966     -0.093614849387

 DF-MP2-F12 correlation energies:
 --------------------------------
 Approx.                                    Singlet             Triplet             Ecorr            Total Energy
 DF-MP2                                -0.537864631167     -0.343212105288     -0.881076736455   -264.665853021821
 DF-MP2-F12/3*C(DX,FIX)                -0.635289754010     -0.360142575673     -0.995432329684   -264.780208615049
 DF-MP2-F12/3*C(FIX)                   -0.617700753437     -0.356604086092     -0.974304839529   -264.759081124894
 DF-MP2-F12/3C(FIX)                    -0.618063053588     -0.356628532254     -0.974691585843   -264.759467871208

 SCS-DF-MP2 energies (F_SING= 1.20000  F_TRIP= 0.62222  F_PARALLEL= 0.33333):
 ----------------------------------------------------------------------------
 SCS-DF-MP2                            -0.858991756247   -264.643768041612
 SCS-DF-MP2-F12/3*C(DX,FIX)            -0.986436418565   -264.771212703930
 SCS-DF-MP2-F12/3*C(FIX)               -0.963127891026   -264.747904176391
 SCS-DF-MP2-F12/3C(FIX)                -0.963577862153   -264.748354147519
 Symmetry transformation completed.

 Number of N-1 electron functions:              12
 Number of N-2 electron functions:              78
 Number of singly external CSFs:              2568
 Number of doubly external CSFs:           3298596
 Total number of CSFs:                     3301165

 Pair and operator lists are different

 Length of J-op  integral file:             474.22 MB
 Length of K-op  integral file:             572.29 MB
 Length of 3-ext integral record:             0.00 MB

 For full I/O caching in triples, increase memory by 50.81 Mwords to 151.09 Mwords.

 Integral transformation finished. Total CPU:  12.48 sec, npass=  1  Memory used:  87.46 MW

 Reference energy:                   -263.78477629

 Adding F12 terms to K(Cij), methodcc=6,  factor=1.0

 ITER.      SQ.NORM     CORR.ENERGY   TOTAL ENERGY   ENERGY CHANGE        DEN1      VAR(S)    VAR(P)  DIIS     TIME
   1      1.20222404    -0.86298504  -264.64776133     0.01810781     0.04679208  0.72D-02  0.56D-02  1  1    29.06
   2      1.21655949    -0.85874109  -264.64351737     0.00424395    -0.02018487  0.86D-04  0.59D-03  2  2    37.94
   3      1.22192465    -0.85883618  -264.64361246    -0.00009509    -0.00236083  0.13D-03  0.33D-04  3  3    47.19
   4      1.22473374    -0.85870733  -264.64348362     0.00012884    -0.00141349  0.76D-05  0.41D-05  4  4    55.97
   5      1.22576817    -0.85866928  -264.64344557     0.00003805    -0.00036769  0.56D-06  0.29D-06  5  5    64.62
   6      1.22593105    -0.85864235  -264.64341863     0.00002694    -0.00000802  0.40D-07  0.24D-07  6  6    73.55
   7      1.22596061    -0.85863990  -264.64341619     0.00000245    -0.00000621  0.27D-08  0.41D-08  6  4    82.94
   8      1.22596099    -0.85863940  -264.64341568     0.00000050     0.00000193  0.40D-09  0.28D-09  6  1    91.85
   9      1.22596158    -0.85863947  -264.64341575    -0.00000007     0.00000059  0.29D-10  0.22D-10  6  2   100.98

 Norm of t1 vector:      0.10609636      S-energy:     0.00000090      T1 diagnostic:  0.01531369
                                                                       D1 diagnostic:  0.04500182

 Adding energy correction from Wij-K(Fij), methodcc=6  factor=1.0
 
  CCSD correlation energy              -0.858639468157
  MP2-F12 correction (uncoupled)       -0.092454753900
  C*T doubles correction               -0.001477890620
  f12b correction                       0.015403986307


 Total CPU time for triples:    225.91 sec


 RESULTS
 =======

  Reference energy                   -263.768843377095
  F12 singles correction               -0.015932908271

 F12 singles corrections added to reference energy

  New reference energy               -263.784776285365

  F12a singlet correction              -0.080398547371
  F12a triplet correction              -0.013534097149
  F12a total correction                -0.093932644520

 F12a corrections for ansatz F12/3C(FIX) added to CCSD energy
 
  CCSD-F12a singlet pair energy        -0.641979452897
  CCSD-F12a triplet pair energy        -0.310593564568
  CCSD-F12a correlation energy         -0.952572112677

  Triples (T) contribution             -0.037681068511
  Total correlation energy             -0.990253181188

  CCSD-F12a total energy             -264.737348398042
  CCSD[T]-F12a energy                -264.777580410582
  CCSD-T-F12a energy                 -264.774089399613
 !CCSD(T)-F12a total energy          -264.775029466553

 F12b corrections for ansatz F12/3C(FIX) added to CCSD(T)-F12a energy

  CCSD-F12b singlet pair energy        -0.627798563140
  CCSD-F12b triplet pair energy        -0.309370468017
  CCSD-F12b correlation energy         -0.937168126370

  Triples (T) contribution             -0.037681068511
  Total correlation energy             -0.974849194881

  CCSD-F12b total energy             -264.721944411735
  CCSD[T]-F12b energy                -264.762176424275
  CCSD-T-F12b energy                 -264.758685413306
 !CCSD(T)-F12b total energy          -264.759625480246

 Timing summary (sec):

 STEP                 CPU(USER)    SYS     CPU(TOT)    WALL
 Transformation         12.58      1.15     13.73     13.73
 CCSD iterations        80.20      2.91     83.11     83.67
 Triples               225.91      2.54    228.45    228.35
 MP2-F12                 8.23      1.14      9.37      9.38
 F12b energy             5.94      0.04      5.98      5.98

 Program statistics:

 Available memory in ccsd:                99998934
 Min. memory needed in ccsd:               8644845
 Max. memory used in ccsd:                11598633
 Max. memory used in cckext:               8768967 (10 integral passes)



 **********************************************************************************************************************************
 DATASETS  * FILE   NREC   LENGTH (MB)   RECORD NAMES
              1      20      527.84       500      610      700      900      950      970     1000      129      960     1100   
                                          VAR    BASINP    GEOM    SYMINP    ZMAT    AOBASIS   BASIS     P2S    ABASIS      S 
                                         1400     1410     1200     1210     1080     1600     1650     1700      960(1)  1380   
                                           T        V       H0       H01     AOSYM     SMH    MOLCAS    OPER    ABASIS    JKOP   

              2       5        2.50       700     1000     2100     7360     7350   
                                         GEOM     BASIS     RHF    F12ABS    EF12   

 PROGRAMS   *        TOTAL   CCSD(T)        HF       INT
 CPU TIMES  *       351.76    333.10     10.00      8.60
 REAL TIME  *       361.61 SEC
 DISK USED  *         3.24 GB      
 SF USED    *         1.91 GB      
 GA USED    *         2.40 MB       (max)       0.00 MB       (current)
 **********************************************************************************************************************************

     CCSD(T)-F12        HF-SCF  
   -264.75962548   -263.76884338
 **********************************************************************************************************************************
 Variable memory released
