
 Primary working directories    : /scratch/kee
 Secondary working directories  : /scratch/kee
 Wavefunction directory         : /home/kee/wfu/
 Main file repository           : /scratch/kee/

 ARCHNAME  : Linux/x86_64
 FC        : /opt/intel/composer_xe_2015.0.090/bin/intel64/ifort
 FCVERSION : 15.0.0
 BLASLIB   : -L/opt/intel/mkl/lib/intel64 -lmkl_intel_ilp64 -lmkl_sequential -lmkl_core
 id        : emory

 Nodes     nprocs
 node22       3
 Number of processes for MPI-2 version of Molpro:   nprocs(total)=    4   nprocs(compute)=    3   nprocs(helper)=    1
 ga_uses_ma=false, calling ma_init with nominal heap.
 GA-space will be limited to   8.0 MW (determined by -G option)

 Using customized tuning parameters: mindgm=7; mindgv=32; mindgc=1; mindgr=1; noblas=0; mincuda=1000; minvec=7
 default implementation of scratch files=sf  

 ***,co2h2o
 memory,100,m
 basis avtz
 geomtype = xyz
 geometry = {
 6
       0.00000777
 O    10.97257393   -1.10347931    0.00000000
 O    11.76744404    1.08065151   -0.00000000
 O     5.49356282    0.00000000    0.00000000
 H     4.74556774    0.58340495    0.10287003
 H     6.24598802    0.58686026    0.10347930
 C    11.34356282    0.00000000    0.00000000
 }
 hf
 ccsd(t)-f12
 ---

 Variables initialized (665), CPU time= 0.00 sec
 Commands  initialized (462), CPU time= 0.01 sec, 486 directives.
 Default parameters read. Elapsed time= 0.04 sec

 Checking input...
 Passed
1


                                         ***  PROGRAM SYSTEM MOLPRO  ***
                         Copyright, University College Cardiff Consultants Limited, 2008

                                    Version 2010.1 linked 9 Dec 2014 15:06:28 


 **********************************************************************************************************************************
 LABEL *   co2h2o                                                                        
 Linux-2.6.32-504.el6.x86_64/node22(x86_64) 64 bit mpp version                           DATE: 18-Jan-17          TIME: 21:05:59  
 **********************************************************************************************************************************

 Patch level:      19
 **********************************************************************************************************************************

 Variable memory set to  100000000 words,  buffer space   230000 words

 SETTING BASIS          =    AVTZ
 SETTING GEOMTYPE       =    XYZ

Geometry recognized as XYZ



 Recomputing integrals since basis changed


 Using spherical harmonics

 Library entry O      S aug-cc-pVTZ          selected for orbital group  1
 Library entry O      P aug-cc-pVTZ          selected for orbital group  1
 Library entry O      D aug-cc-pVTZ          selected for orbital group  1
 Library entry O      F aug-cc-pVTZ          selected for orbital group  1
 Library entry H      S aug-cc-pVTZ          selected for orbital group  2
 Library entry H      P aug-cc-pVTZ          selected for orbital group  2
 Library entry H      D aug-cc-pVTZ          selected for orbital group  2
 Library entry C      S aug-cc-pVTZ          selected for orbital group  3
 Library entry C      P aug-cc-pVTZ          selected for orbital group  3
 Library entry C      D aug-cc-pVTZ          selected for orbital group  3
 Library entry C      F aug-cc-pVTZ          selected for orbital group  3

1PROGRAM * SEWARD (Integral evaluation for generally contracted gaussian basis sets)     Author: Roland Lindh, 1990

 Geometry written to block  1 of record 700


 Point group  C1  



 ATOMIC COORDINATES

 NR  ATOM    CHARGE       X              Y              Z

   1  O       8.00   20.735159684   -2.085273688    0.000000000
   2  O       8.00   22.237246502    2.042135397    0.000000000
   3  O       8.00   10.381329216    0.000000000    0.000000000
   4  H       1.00    8.967823367    1.102475579    0.194396184
   5  H       1.00   11.803206778    1.109005169    0.195547537
   6  C       6.00   21.436227084    0.000000000    0.000000000

 Bond lengths in Bohr (Angstrom)

 1-6  2.199968602  2-6  2.193615529  3-4  1.803119814  3-5  1.813799081
     (1.164173245)     (1.160811343)     (0.954169911)     (0.959821135)

 Bond angles

  1-6-2  177.16520951   4-3-5  103.24222917

 NUCLEAR CHARGE:                   32
 NUMBER OF PRIMITIVE AOS:         322
 NUMBER OF SYMMETRY AOS:          282
 NUMBER OF CONTRACTIONS:          230   ( 230A   )
 NUMBER OF CORE ORBITALS:           4   (   4A   )
 NUMBER OF VALENCE ORBITALS:       18   (  18A   )


 NUCLEAR REPULSION ENERGY   87.15486957


 Eigenvalues of metric

         1 0.335E-03 0.348E-03 0.376E-03 0.395E-03 0.899E-03 0.921E-03 0.149E-02 0.169E-02


 Contracted 2-electron integrals neglected if value below      1.0D-11
 AO integral compression algorithm  1   Integral accuracy      1.0D-11

     629.670 MB (compressed) written to integral file ( 19.7%)

     Node minimum: 194.249 MB, node maximum: 233.570 MB


 NUMBER OF SORTED TWO-ELECTRON INTEGRALS:  117629820.     BUFFER LENGTH:  32768
 NUMBER OF SEGMENTS:   8  SEGMENT LENGTH:   15997437      RECORD LENGTH: 524288

 Memory used in sort:      16.55 MW

 SORT1 READ   398624765. AND WROTE    47597419. INTEGRALS IN    141 RECORDS. CPU TIME:     3.70 SEC, REAL TIME:     4.45 SEC
 SORT2 READ   142783100. AND WROTE   352862895. INTEGRALS IN   2673 RECORDS. CPU TIME:     1.37 SEC, REAL TIME:     1.79 SEC

 Node minimum:   117612110.  Node maximum:   117629820. integrals

 OPERATOR DM      FOR CENTER  0  COORDINATES:    0.000000    0.000000    0.000000


 **********************************************************************************************************************************
 DATASETS  * FILE   NREC   LENGTH (MB)   RECORD NAMES
              1      18        4.62       500      610      700      900      950      970     1000      129      960     1100   
                                          VAR    BASINP    GEOM    SYMINP    ZMAT    AOBASIS   BASIS     P2S    ABASIS      S 
                                         1400     1410     1200     1210     1080     1600     1650     1700   
                                           T        V       H0       H01     AOSYM     SMH    MOLCAS    OPER   

 PROGRAMS   *        TOTAL       INT
 CPU TIMES  *         8.77      8.69
 REAL TIME  *        10.12 SEC
 DISK USED  *         2.30 GB      
 GA USED    *         0.00 MB       (max)       0.00 MB       (current)
 **********************************************************************************************************************************

1PROGRAM * RHF-SCF (CLOSED SHELL)       Authors: W. Meyer, H.-J. Werner


 NUMBER OF ELECTRONS:      16+   16-    SPACE SYMMETRY=1    SPIN SYMMETRY=Singlet 
 CONVERGENCE THRESHOLDS:    1.00E-05 (Density)    1.00E-07 (Energy)
 MAX. NUMBER OF ITERATIONS:       60
 INTERPOLATION TYPE:            DIIS
 INTERPOLATION STEPS:              2 (START)      1 (STEP)
 LEVEL SHIFTS:                  0.00 (CLOSED)  0.00 (OPEN) 



 Orbital guess generated from atomic densities. Full valence occupancy:   22

 Molecular orbital dump at record        2100.2

 ITERATION    DDIFF          GRAD             ENERGY        2-EL.EN.            DIPOLE MOMENTS         DIIS
    1      0.000D+00      0.000D+00      -263.65887017    369.611877   -0.06883    1.17028    0.19888    0
    2      0.000D+00      0.470D-02      -263.72449714    365.122877   -0.01664    0.65205    0.11557    1
    3      0.753D-02      0.320D-02      -263.76830087    367.667611   -0.03455    0.78772    0.13556    2
    4      0.310D-02      0.300D-03      -263.76879820    367.454373   -0.03459    0.78772    0.13647    3
    5      0.356D-03      0.878D-04      -263.76885702    367.458055   -0.03369    0.78525    0.13548    4
    6      0.134D-03      0.358D-04      -263.76886441    367.472333   -0.03417    0.78417    0.13562    5
    7      0.446D-04      0.904D-05      -263.76886517    367.464498   -0.03389    0.78465    0.13555    6
    8      0.148D-04      0.258D-05      -263.76886523    367.465148   -0.03409    0.78412    0.13555    7
    9      0.417D-05      0.173D-05      -263.76886523    367.465524   -0.03396    0.78450    0.13555    0

 Final occupancy:  16

 !RHF STATE 1.1 Energy               -263.768865231844
 Nuclear energy                        87.15486957
 One-electron energy                 -534.65649673
 Two-electron energy                  183.73276193
 Virial quotient                       -1.00179624
 !RHF STATE 1.1 Dipole moment          -0.03395724     0.78449588     0.13554822
 Dipole moment /Debye                  -0.08630505     1.99385903     0.34450663

 Orbital energies:

         1.1          2.1          3.1          4.1          5.1          6.1          7.1          8.1          9.1         10.1
    -20.655254   -20.653742   -20.569016   -11.463271    -1.532035    -1.478671    -1.355974    -0.802266    -0.744304    -0.716834

        11.1         12.1         13.1         14.1         15.1         16.1         17.1         18.1
     -0.716082    -0.716016    -0.588712    -0.545655    -0.545625    -0.512030     0.026627     0.042512


 **********************************************************************************************************************************
 DATASETS  * FILE   NREC   LENGTH (MB)   RECORD NAMES
              1      18        4.62       500      610      700      900      950      970     1000      129      960     1100   
                                          VAR    BASINP    GEOM    SYMINP    ZMAT    AOBASIS   BASIS     P2S    ABASIS      S 
                                         1400     1410     1200     1210     1080     1600     1650     1700   
                                           T        V       H0       H01     AOSYM     SMH    MOLCAS    OPER   

              2       3        1.44       700     1000     2100   
                                         GEOM     BASIS     RHF  

 PROGRAMS   *        TOTAL        HF       INT
 CPU TIMES  *        18.97     10.20      8.69
 REAL TIME  *        20.61 SEC
 DISK USED  *         2.33 GB      
 SF USED    *         0.21 MB      
 GA USED    *         0.00 MB       (max)       0.00 MB       (current)
 **********************************************************************************************************************************


1PROGRAM * CCSD (Closed-shell coupled cluster)     Authors: C. Hampel, H.-J. Werner, 1991, M. Deegan, P.J. Knowles, 1992

                                  CCSD-F12 implementation by  H.-J. Werner, 2007

                   Density fitting integral evaluation by F.R. Manby, 2003,2007, G. Knizia, 2010

 Basis set CC-PVTZ/JKFIT generated.      Number of basis functions:   376 
 Basis set AUG-CC-PVTZ/MP2FIT generated. Number of basis functions:   516 

 Convergence thresholds:  THRVAR = 1.00D-08  THRDEN = 1.00D-06

 CCSD(T)     terms to be evaluated (factor= 1.000)


 Number of core orbitals:           4 (   4 )
 Number of closed-shell orbitals:  12 (  12 )
 Number of external orbitals:     214 ( 214 )

 Molecular orbitals read from record     2100.2  Type=RHF/CANONICAL (state 1.1)

 MP2-F12 correlation treatment (H.-J. Werner, 2006)
 --------------------------------------------------

 Using MP2-F12 with ansatz 3C(FIX)

 Using projected zeroth-order Hamiltonian (+Z)

 FOCKRIB=T FOCKRIC=T FOCKRIP=T CABSP=T CABSA=T CABSK=T CABSF=T GBC=F EBC=F DMAT=T NOFIK=T NOPAO=1 SOLVE=-1  USEPAO=0
 EXCH_A= T EXCH_B= F EXCH_C= F EXCH_P= F
 
 Geminal basis:    OPTFULL  GEM_TYPE=SLATER  BETA=1.0  NGEM=6

 Optimizing Gaussian exponents for each gem_beta

 Geminal optimization for beta= 1.0000
 Weight function:   m=0, omega= 1.4646

 Augmented Hessian optimization of geminal fit. Trust ratio= 0.40000
 Convergence reached after   2 iterations. Final gradient= 8.24D-16, Step= 4.32D-06, Delta= 1.28D-09
 
 Alpha:                 0.19532     0.81920     2.85917     9.50073    35.69989   197.79328
 Coeff:                 0.27070     0.30552     0.18297     0.10986     0.06810     0.04224
 

 All pairs explicitly correlated. Number of r12-pairs:           78
 
 AO(A)-basis ORBITAL           loaded. Number of functions:     230
 RI(R)-basis CC-PVTZ/JKFIT     loaded. Number of functions:     376
 DF-basis CC-PVTZ/JKFIT        loaded. Number of functions:     376

 Screening thresholds:   THRAO=  1.00D-10  THRMO=  1.00D-09  THRPROD=  1.00D-09
                         THRSW=  1.00D-05  THROV=  1.00D-12  THRF12=   1.00D-08

 CPU time for Fock operators                      0.90 sec
 
 Construction of ABS:
 Smallest eigenvalue of S          2.58E-04  (threshold= 1.00E-08)
 Ratio eigmin/eigmax               1.84E-06  (threshold= 1.00E-09)
 Smallest eigenvalue of S kept     2.58E-04  (threshold= 2.58E-04, 0 functions deleted, 376 kept)
 
 Construction of CABS:
 Smallest eigenvalue of S          2.30E-08  (threshold= 1.00E-08)
 Ratio eigmin/eigmax               2.30E-08  (threshold= 1.00E-09)
 Smallest eigenvalue of S kept     2.30E-08  (threshold= 2.30E-08, 0 functions deleted, 376 kept)
 
 CPU time for CABS singles                        0.16 sec

 CABS-singles contribution of  -0.01593293 patched into reference energy.
 New reference energy        -263.78479816
 
 AO(A)-basis ORBITAL           loaded. Number of functions:     230
 RI(R)-basis CC-PVTZ/JKFIT     loaded. Number of functions:     376
 DF-basis AUG-CC-PVTZ/MP2FIT   loaded. Number of functions:     516

 Screening thresholds:   THRAO=  1.00D-10  THRMO=  1.00D-09  THRPROD=  1.00D-09
                         THRSW=  1.00D-05  THROV=  1.00D-12  THRF12=   1.00D-08

 CPU time for 3-index integral evaluation         2.09 sec
 CPU time for first  half transformation          0.34 sec ( 8350.3 MFLOP/sec)
 CPU time for second half transformation          0.01 sec (10743.8 MFLOP/sec)
 CPU time for sorting                             0.16 sec
 CPU time for fitting                             0.05 sec (27861.0 MFLOP/sec)
 CPU time for tilde quantities                    0.06 sec (31098.7 MFLOP/sec)
 CPU time for assembly                            0.79 sec (30867.9 MFLOP/sec)
 CPU time for tranop_f12                          0.88 sec (34934.3 MFLOP/sec)
 CPU time for f12 integrals (total)               6.37 sec
 F12-matrices built in  3 passes.
 F12-matrices built in  3 passes.
 F12-matrices built in  3 passes.
 F12-matrices built in  3 passes.
 FC-matrix built in  3 passes.
 CPU time for f12 matrices (total)                0.62 sec

 Diagonal F12 approximation with fixed coefficients:  TSING= 0.500,  TTRIP= 0.250 (scaled by -1/beta)

 DF-MP2-F12 energy corrections:
 ------------------------------
 Approx.                                    Singlet             Triplet             Total
 DF-MP2-F12/3*C(DX,FIX)                -0.097427122753     -0.016930812042     -0.114357934794
 DF-MP2-F12/3*C(FIX)                   -0.079837875965     -0.013392276261     -0.093230152226
 DF-MP2-F12/3C(FIX)                    -0.080200130980     -0.013416650720     -0.093616781699

 DF-MP2-F12 correlation energies:
 --------------------------------
 Approx.                                    Singlet             Triplet             Ecorr            Total Energy
 DF-MP2                                -0.537858259548     -0.343205060578     -0.881063320125   -264.665861482198
 DF-MP2-F12/3*C(DX,FIX)                -0.635285382300     -0.360135872619     -0.995421254920   -264.780219416992
 DF-MP2-F12/3*C(FIX)                   -0.617696135513     -0.356597336838     -0.974293472351   -264.759091634424
 DF-MP2-F12/3C(FIX)                    -0.618058390527     -0.356621711297     -0.974680101825   -264.759478263897

 SCS-DF-MP2 energies (F_SING= 1.20000  F_TRIP= 0.62222  F_PARALLEL= 0.33333):
 ----------------------------------------------------------------------------
 SCS-DF-MP2                            -0.858979726928   -264.643777889000
 SCS-DF-MP2-F12/3*C(DX,FIX)            -0.986427001723   -264.771225163796
 SCS-DF-MP2-F12/3*C(FIX)               -0.963118149981   -264.747916312054
 SCS-DF-MP2-F12/3C(FIX)                -0.963568022329   -264.748366184402
 Symmetry transformation completed.

 Number of N-1 electron functions:              12
 Number of N-2 electron functions:              78
 Number of singly external CSFs:              2568
 Number of doubly external CSFs:           3298596
 Total number of CSFs:                     3301165

 Pair and operator lists are different

 Length of J-op  integral file:             474.22 MB
 Length of K-op  integral file:             572.29 MB
 Length of 3-ext integral record:             0.00 MB

 For full I/O caching in triples, increase memory by 50.81 Mwords to 151.09 Mwords.

 Integral transformation finished. Total CPU:  13.04 sec, npass=  1  Memory used:  87.46 MW

 Reference energy:                   -263.78479816

 Adding F12 terms to K(Cij), methodcc=6,  factor=1.0

 ITER.      SQ.NORM     CORR.ENERGY   TOTAL ENERGY   ENERGY CHANGE        DEN1      VAR(S)    VAR(P)  DIIS     TIME
   1      1.20221941    -0.86297348  -264.64777164     0.01810598     0.04678867  0.72D-02  0.56D-02  1  1    30.14
   2      1.21655375    -0.85872986  -264.64352802     0.00424362    -0.02018346  0.86D-04  0.59D-03  2  2    39.21
   3      1.22191896    -0.85882494  -264.64362310    -0.00009508    -0.00236110  0.13D-03  0.33D-04  3  3    48.04
   4      1.22472773    -0.85869611  -264.64349427     0.00012883    -0.00141339  0.76D-05  0.41D-05  4  4    57.11
   5      1.22576206    -0.85865807  -264.64345623     0.00003804    -0.00036767  0.56D-06  0.29D-06  5  5    66.30
   6      1.22592494    -0.85863113  -264.64342929     0.00002694    -0.00000804  0.40D-07  0.24D-07  6  6    75.16
   7      1.22595450    -0.85862868  -264.64342684     0.00000245    -0.00000621  0.27D-08  0.41D-08  6  4    84.49
   8      1.22595488    -0.85862818  -264.64342634     0.00000050     0.00000193  0.40D-09  0.28D-09  6  1    93.70
   9      1.22595547    -0.85862825  -264.64342641    -0.00000007     0.00000058  0.28D-10  0.22D-10  6  2   102.82

 Norm of t1 vector:      0.10609348      S-energy:     0.00000087      T1 diagnostic:  0.01531327
                                                                       D1 diagnostic:  0.04500191

 Adding energy correction from Wij-K(Fij), methodcc=6  factor=1.0
 
  CCSD correlation energy              -0.858628246865
  MP2-F12 correction (uncoupled)       -0.092456729463
  C*T doubles correction               -0.001477926669
  f12b correction                       0.015404114253


 Total CPU time for triples:    194.68 sec


 RESULTS
 =======

  Reference energy                   -263.768865231844
  F12 singles correction               -0.015932930228

 F12 singles corrections added to reference energy

  New reference energy               -263.784798162073

  F12a singlet correction              -0.080400277890
  F12a triplet correction              -0.013534378242
  F12a total correction                -0.093934656132

 F12a corrections for ansatz F12/3C(FIX) added to CCSD energy
 
  CCSD-F12a singlet pair energy        -0.641975449894
  CCSD-F12a triplet pair energy        -0.310588323379
  CCSD-F12a correlation energy         -0.952562902998

  Triples (T) contribution             -0.037679046991
  Total correlation energy             -0.990241949989

  CCSD-F12a total energy             -264.737361065070
  CCSD[T]-F12a energy                -264.777590867189
  CCSD-T-F12a energy                 -264.774100114464
 !CCSD(T)-F12a total energy          -264.775040112061

 F12b corrections for ansatz F12/3C(FIX) added to CCSD(T)-F12a energy

  CCSD-F12b singlet pair energy        -0.627794434503
  CCSD-F12b triplet pair energy        -0.309365224517
  CCSD-F12b correlation energy         -0.937158788745

  Triples (T) contribution             -0.037679046991
  Total correlation energy             -0.974837835736

  CCSD-F12b total energy             -264.721956950818
  CCSD[T]-F12b energy                -264.762186752936
  CCSD-T-F12b energy                 -264.758696000211
 !CCSD(T)-F12b total energy          -264.759635997809

 Timing summary (sec):

 STEP                 CPU(USER)    SYS     CPU(TOT)    WALL
 Transformation         13.14      1.09     14.23     14.22
 CCSD iterations        81.13      2.89     84.02     83.99
 Triples               194.68      2.21    196.89    196.81
 MP2-F12                 8.58      1.21      9.79      9.82
 F12b energy             6.13      0.05      6.18      6.18

 Program statistics:

 Available memory in ccsd:                99998934
 Min. memory needed in ccsd:               8644845
 Max. memory used in ccsd:                11598633
 Max. memory used in cckext:               8768967 (10 integral passes)



 **********************************************************************************************************************************
 DATASETS  * FILE   NREC   LENGTH (MB)   RECORD NAMES
              1      20      527.84       500      610      700      900      950      970     1000      129      960     1100   
                                          VAR    BASINP    GEOM    SYMINP    ZMAT    AOBASIS   BASIS     P2S    ABASIS      S 
                                         1400     1410     1200     1210     1080     1600     1650     1700      960(1)  1380   
                                           T        V       H0       H01     AOSYM     SMH    MOLCAS    OPER    ABASIS    JKOP   

              2       5        2.50       700     1000     2100     7360     7350   
                                         GEOM     BASIS     RHF    F12ABS    EF12   

 PROGRAMS   *        TOTAL   CCSD(T)        HF       INT
 CPU TIMES  *       322.67    303.71     10.20      8.69
 REAL TIME  *       332.02 SEC
 DISK USED  *         3.20 GB      
 SF USED    *         1.91 GB      
 GA USED    *         2.40 MB       (max)       0.00 MB       (current)
 **********************************************************************************************************************************

     CCSD(T)-F12        HF-SCF  
   -264.75963600   -263.76886523
 **********************************************************************************************************************************
 Variable memory released
