
 Primary working directories    : /scratch/kee
 Secondary working directories  : /scratch/kee
 Wavefunction directory         : /home/kee/wfu/
 Main file repository           : /scratch/kee/

 ARCHNAME  : Linux/x86_64
 FC        : /opt/intel/composer_xe_2015.0.090/bin/intel64/ifort
 FCVERSION : 15.0.0
 BLASLIB   : -L/opt/intel/mkl/lib/intel64 -lmkl_intel_ilp64 -lmkl_sequential -lmkl_core
 id        : emory

 Nodes     nprocs
 node17       3
 Number of processes for MPI-2 version of Molpro:   nprocs(total)=    4   nprocs(compute)=    3   nprocs(helper)=    1
 ga_uses_ma=false, calling ma_init with nominal heap.
 GA-space will be limited to   8.0 MW (determined by -G option)

 Using customized tuning parameters: mindgm=7; mindgv=32; mindgc=1; mindgr=1; noblas=0; mincuda=1000; minvec=7
 default implementation of scratch files=sf  

 ***,co2h2o
 memory,100,m
 basis avtz
 geomtype = xyz
 geometry = {
 6
       0.00000000
 O     0.01288800    1.16233300    0.00000000
 O     0.01288800   -1.16233300    0.00000000
 O    10.10363900    0.00000000    0.00000000
 H     9.52249900    0.76306800    0.00000000
 H     9.52249900   -0.76306800    0.00000000
 C     0.00363900    0.00000000    0.00000000
 }
 hf
 ccsd(t)-f12
 ---

 Variables initialized (665), CPU time= 0.01 sec
 Commands  initialized (462), CPU time= 0.01 sec, 486 directives.
 Default parameters read. Elapsed time= 0.06 sec

 Checking input...
 Passed
1


                                         ***  PROGRAM SYSTEM MOLPRO  ***
                         Copyright, University College Cardiff Consultants Limited, 2008

                                    Version 2010.1 linked 9 Dec 2014 15:06:28 


 **********************************************************************************************************************************
 LABEL *   co2h2o                                                                        
 Linux-2.6.32-504.el6.x86_64/node17(x86_64) 64 bit mpp version                           DATE: 15-Dec-16          TIME: 00:20:19  
 **********************************************************************************************************************************

 Patch level:      19
 **********************************************************************************************************************************

 Variable memory set to  100000000 words,  buffer space   230000 words

 SETTING BASIS          =    AVTZ
 SETTING GEOMTYPE       =    XYZ

Geometry recognized as XYZ



 Recomputing integrals since basis changed


 Using spherical harmonics

 Library entry O      S aug-cc-pVTZ          selected for orbital group  1
 Library entry O      P aug-cc-pVTZ          selected for orbital group  1
 Library entry O      D aug-cc-pVTZ          selected for orbital group  1
 Library entry O      F aug-cc-pVTZ          selected for orbital group  1
 Library entry H      S aug-cc-pVTZ          selected for orbital group  2
 Library entry H      P aug-cc-pVTZ          selected for orbital group  2
 Library entry H      D aug-cc-pVTZ          selected for orbital group  2
 Library entry C      S aug-cc-pVTZ          selected for orbital group  3
 Library entry C      P aug-cc-pVTZ          selected for orbital group  3
 Library entry C      D aug-cc-pVTZ          selected for orbital group  3
 Library entry C      F aug-cc-pVTZ          selected for orbital group  3

1PROGRAM * SEWARD (Integral evaluation for generally contracted gaussian basis sets)     Author: Roland Lindh, 1990

 Geometry written to block  1 of record 700


 Point group  C2v 



 ATOMIC COORDINATES

 NR  ATOM    CHARGE       X              Y              Z

   1  O       8.00    0.024354790    2.196491044    0.000000000
   2  O       8.00    0.024354790   -2.196491044    0.000000000
   3  O       8.00   19.093110641    0.000000000    0.000000000
   4  H       1.00   17.994915197    1.441989540    0.000000000
   5  H       1.00   17.994915197   -1.441989540    0.000000000
   6  C       6.00    0.006876713    0.000000000    0.000000000

 Bond lengths in Bohr (Angstrom)

 1-6  2.196560581  2-6  2.196560581  3-4  1.812558155  3-5  1.812558155
     (1.162369798)     (1.162369798)     (0.959164466)     (0.959164466)

 Bond angles

  1-6-2  179.08818302   4-3-5  105.41539946

 NUCLEAR CHARGE:                   32
 NUMBER OF PRIMITIVE AOS:         322
 NUMBER OF SYMMETRY AOS:          282
 NUMBER OF CONTRACTIONS:          230   (  84A1  +  68B1  +  45B2  +  33A2  )
 NUMBER OF CORE ORBITALS:           4   (   3A1  +   1B1  +   0B2  +   0A2  )
 NUMBER OF VALENCE ORBITALS:       18   (   8A1  +   6B1  +   3B2  +   1A2  )


 NUCLEAR REPULSION ENERGY   79.05796344


 Eigenvalues of metric

         1 0.380E-03 0.421E-03 0.903E-03 0.185E-02 0.318E-02 0.321E-02 0.405E-02 0.539E-02
         2 0.349E-03 0.393E-03 0.923E-03 0.168E-02 0.175E-02 0.348E-02 0.514E-02 0.627E-02
         3 0.318E-02 0.595E-02 0.136E-01 0.297E-01 0.319E-01 0.365E-01 0.590E-01 0.641E-01
         4 0.348E-02 0.124E-01 0.296E-01 0.362E-01 0.561E-01 0.680E-01 0.111E+00 0.140E+00


 Contracted 2-electron integrals neglected if value below      1.0D-11
 AO integral compression algorithm  1   Integral accuracy      1.0D-11

     154.403 MB (compressed) written to integral file ( 25.1%)

     Node minimum: 47.186 MB, node maximum: 57.934 MB


 NUMBER OF SORTED TWO-ELECTRON INTEGRALS:   30156294.     BUFFER LENGTH:  32768
 NUMBER OF SEGMENTS:   2  SEGMENT LENGTH:   15999663      RECORD LENGTH: 524288

 Memory used in sort:      16.56 MW

 SORT1 READ    76770631. AND WROTE     9162134. INTEGRALS IN     27 RECORDS. CPU TIME:     1.21 SEC, REAL TIME:     1.32 SEC
 SORT2 READ    27521159. AND WROTE    90461370. INTEGRALS IN    540 RECORDS. CPU TIME:     0.36 SEC, REAL TIME:     0.47 SEC

 Node minimum:    30151286.  Node maximum:    30156294. integrals

 OPERATOR DM      FOR CENTER  0  COORDINATES:    0.000000    0.000000    0.000000


 **********************************************************************************************************************************
 DATASETS  * FILE   NREC   LENGTH (MB)   RECORD NAMES
              1      18        3.24       500      610      700      900      950      970     1000      129      960     1100   
                                          VAR    BASINP    GEOM    SYMINP    ZMAT    AOBASIS   BASIS     P2S    ABASIS      S 
                                         1400     1410     1200     1210     1080     1600     1650     1700   
                                           T        V       H0       H01     AOSYM     SMH    MOLCAS    OPER   

 PROGRAMS   *        TOTAL       INT
 CPU TIMES  *         2.91      2.80
 REAL TIME  *         3.21 SEC
 DISK USED  *       479.73 MB      
 GA USED    *         0.00 MB       (max)       0.00 MB       (current)
 **********************************************************************************************************************************

1PROGRAM * RHF-SCF (CLOSED SHELL)       Authors: W. Meyer, H.-J. Werner


 NUMBER OF ELECTRONS:      16+   16-
 CONVERGENCE THRESHOLDS:    1.00E-05 (Density)    1.00E-07 (Energy)
 MAX. NUMBER OF ITERATIONS:       60
 INTERPOLATION TYPE:            DIIS
 INTERPOLATION STEPS:              2 (START)      1 (STEP)
 LEVEL SHIFTS:                  0.00 (CLOSED)  0.00 (OPEN) 



 Orbital guess generated from atomic densities. Full valence occupancy:   11   7   3   1

 Molecular orbital dump at record        2100.2

 Initial alpha occupancy:   8   5   2   1
 Initial beta  occupancy:   8   5   2   1
 Wave function symmetry:    1

 ITERATION    DDIFF          GRAD             ENERGY        2-EL.EN.            DIPOLE MOMENTS         DIIS
    1      0.000D+00      0.000D+00      -263.66017502    353.393076   -1.15213    0.00000    0.00000    0
    2      0.000D+00      0.881D-02      -263.72542717    348.929538   -0.67455    0.00000    0.00000    1
    3      0.141D-01      0.599D-02      -263.76886934    351.466897   -0.79092    0.00000    0.00000    2
    4      0.583D-02      0.563D-03      -263.76936496    351.252644   -0.79487    0.00000    0.00000    3
    5      0.690D-03      0.164D-03      -263.76942301    351.256725   -0.78940    0.00000    0.00000    4
    6      0.256D-03      0.660D-04      -263.76943017    351.270868   -0.79013    0.00000    0.00000    5
    7      0.847D-04      0.162D-04      -263.76943090    351.262643   -0.78967    0.00000    0.00000    6
    8      0.278D-04      0.356D-05      -263.76943095    351.263937   -0.78968    0.00000    0.00000    7
    9      0.761D-05      0.119D-05      -263.76943095    351.263757   -0.78964    0.00000    0.00000    0

 Final occupancy:   8   5   2   1

 !RHF STATE 1.1 Energy               -263.769430954337
 Nuclear energy                        79.05796344
 One-electron energy                 -518.45927297
 Two-electron energy                  175.63187858
 Virial quotient                       -1.00184533
 !RHF STATE 1.1 Dipole moment          -0.78964444     0.00000000     0.00000000
 Dipole moment /Debye                  -2.00694451     0.00000000     0.00000000

 Orbital energies:

         1.1          2.1          3.1          4.1          5.1          6.1          7.1          8.1          9.1         10.1
    -20.655587   -20.567392   -11.464432    -1.533107    -1.352215    -0.803446    -0.717216    -0.583059     0.028060     0.045682

         1.2          2.2          3.2          4.2          5.2          6.2          7.2
    -20.655633    -1.480058    -0.745645    -0.718776    -0.546906     0.047217     0.077124

         1.3          2.3          3.3          4.3
     -0.717202    -0.510182     0.070928     0.158261

         1.4          2.4          3.4
     -0.546901     0.161839     0.264675


 **********************************************************************************************************************************
 DATASETS  * FILE   NREC   LENGTH (MB)   RECORD NAMES
              1      18        3.25       500      610      700      900      950      970     1000      129      960     1100   
                                          VAR    BASINP    GEOM    SYMINP    ZMAT    AOBASIS   BASIS     P2S    ABASIS      S 
                                         1400     1410     1200     1210     1080     1600     1650     1700   
                                           T        V       H0       H01     AOSYM     SMH    MOLCAS    OPER   

              2       3        0.68       700     1000     2100   
                                         GEOM     BASIS     RHF  

 PROGRAMS   *        TOTAL        HF       INT
 CPU TIMES  *         3.86      0.95      2.80
 REAL TIME  *         4.22 SEC
 DISK USED  *       497.24 MB      
 SF USED    *         0.06 MB      
 GA USED    *         0.00 MB       (max)       0.00 MB       (current)
 **********************************************************************************************************************************


1PROGRAM * CCSD (Closed-shell coupled cluster)     Authors: C. Hampel, H.-J. Werner, 1991, M. Deegan, P.J. Knowles, 1992

                                  CCSD-F12 implementation by  H.-J. Werner, 2007

                   Density fitting integral evaluation by F.R. Manby, 2003,2007, G. Knizia, 2010

 Basis set CC-PVTZ/JKFIT generated.      Number of basis functions:   376 
 Basis set AUG-CC-PVTZ/MP2FIT generated. Number of basis functions:   516 

 Convergence thresholds:  THRVAR = 1.00D-08  THRDEN = 1.00D-06

 CCSD(T)     terms to be evaluated (factor= 1.000)


 Number of core orbitals:           4 (   3   1   0   0 )
 Number of closed-shell orbitals:  12 (   5   4   2   1 )
 Number of external orbitals:     214 (  76  63  43  32 )

 Molecular orbitals read from record     2100.2  Type=RHF/CANONICAL (state 1.1)

 MP2-F12 correlation treatment (H.-J. Werner, 2006)
 --------------------------------------------------

 Using MP2-F12 with ansatz 3C(FIX)

 Using projected zeroth-order Hamiltonian (+Z)

 FOCKRIB=T FOCKRIC=T FOCKRIP=T CABSP=T CABSA=T CABSK=T CABSF=T GBC=F EBC=F DMAT=T NOFIK=T NOPAO=1 SOLVE=-1  USEPAO=0
 EXCH_A= T EXCH_B= F EXCH_C= F EXCH_P= F
 
 Geminal basis:    OPTFULL  GEM_TYPE=SLATER  BETA=1.0  NGEM=6

 Optimizing Gaussian exponents for each gem_beta

 Geminal optimization for beta= 1.0000
 Weight function:   m=0, omega= 1.4646

 Augmented Hessian optimization of geminal fit. Trust ratio= 0.40000
 Convergence reached after   2 iterations. Final gradient= 8.24D-16, Step= 4.32D-06, Delta= 1.28D-09
 
 Alpha:                 0.19532     0.81920     2.85917     9.50073    35.69989   197.79328
 Coeff:                 0.27070     0.30552     0.18297     0.10986     0.06810     0.04224
 

 Symmetry turned off. Reference energy:       -263.769430954336

 All pairs explicitly correlated. Number of r12-pairs:           78
 
 AO(A)-basis ORBITAL           loaded. Number of functions:     230
 RI(R)-basis CC-PVTZ/JKFIT     loaded. Number of functions:     376
 DF-basis CC-PVTZ/JKFIT        loaded. Number of functions:     376

 Screening thresholds:   THRAO=  1.00D-10  THRMO=  1.00D-09  THRPROD=  1.00D-09
                         THRSW=  1.00D-05  THROV=  1.00D-12  THRF12=   1.00D-08

 CPU time for Fock operators                      0.85 sec
 
 Construction of ABS:
 Smallest eigenvalue of S          2.57E-04  (threshold= 1.00E-08)
 Ratio eigmin/eigmax               1.83E-06  (threshold= 1.00E-09)
 Smallest eigenvalue of S kept     2.57E-04  (threshold= 2.57E-04, 0 functions deleted, 376 kept)
 
 Construction of CABS:
 Smallest eigenvalue of S          2.30E-08  (threshold= 1.00E-08)
 Ratio eigmin/eigmax               2.30E-08  (threshold= 1.00E-09)
 Smallest eigenvalue of S kept     2.30E-08  (threshold= 2.30E-08, 0 functions deleted, 376 kept)
 
 CPU time for CABS singles                        0.15 sec

 CABS-singles contribution of  -0.01591959 patched into reference energy.
 New reference energy        -263.78535055
 
 AO(A)-basis ORBITAL           loaded. Number of functions:     230
 RI(R)-basis CC-PVTZ/JKFIT     loaded. Number of functions:     376
 DF-basis AUG-CC-PVTZ/MP2FIT   loaded. Number of functions:     516

 Screening thresholds:   THRAO=  1.00D-10  THRMO=  1.00D-09  THRPROD=  1.00D-09
                         THRSW=  1.00D-05  THROV=  1.00D-12  THRF12=   1.00D-08

 CPU time for 3-index integral evaluation         1.63 sec
 CPU time for first  half transformation          0.16 sec (12203.2 MFLOP/sec)
 CPU time for second half transformation          0.03 sec ( 2837.8 MFLOP/sec)
 CPU time for sorting                             0.08 sec
 CPU time for fitting                             0.05 sec (27861.0 MFLOP/sec)
 CPU time for tilde quantities                    0.07 sec (26412.6 MFLOP/sec)
 CPU time for assembly                            0.73 sec (32763.9 MFLOP/sec)
 CPU time for tranop_f12                          0.83 sec (36888.3 MFLOP/sec)
 CPU time for f12 integrals (total)               5.54 sec
 F12-matrices built in  3 passes.
 F12-matrices built in  3 passes.
 F12-matrices built in  3 passes.
 F12-matrices built in  3 passes.
 FC-matrix built in  3 passes.
 CPU time for f12 matrices (total)                0.46 sec

 Diagonal F12 approximation with fixed coefficients:  TSING= 0.500,  TTRIP= 0.250 (scaled by -1/beta)

 DF-MP2-F12 energy corrections:
 ------------------------------
 Approx.                                    Singlet             Triplet             Total
 DF-MP2-F12/3*C(DX,FIX)                -0.097450289998     -0.016932644912     -0.114382934910
 DF-MP2-F12/3*C(FIX)                   -0.079868969775     -0.013395544692     -0.093264514466
 DF-MP2-F12/3C(FIX)                    -0.080229978946     -0.013418581448     -0.093648560394

 DF-MP2-F12 correlation energies:
 --------------------------------
 Approx.                                    Singlet             Triplet             Ecorr            Total Energy
 DF-MP2                                -0.537764189882     -0.343099268892     -0.880863458774   -264.666214005555
 DF-MP2-F12/3*C(DX,FIX)                -0.635214479880     -0.360031913804     -0.995246393684   -264.780596940466
 DF-MP2-F12/3*C(FIX)                   -0.617633159656     -0.356494813584     -0.974127973240   -264.759478520022
 DF-MP2-F12/3C(FIX)                    -0.617994168828     -0.356517850340     -0.974512019168   -264.759862565950

 SCS-DF-MP2 energies (F_SING= 1.20000  F_TRIP= 0.62222  F_PARALLEL= 0.33333):
 ----------------------------------------------------------------------------
 SCS-DF-MP2                            -0.858801017391   -264.644151564172
 SCS-DF-MP2-F12/3*C(DX,FIX)            -0.986277233334   -264.771627780115
 SCS-DF-MP2-F12/3*C(FIX)               -0.962978786706   -264.748329333488
 SCS-DF-MP2-F12/3C(FIX)                -0.963426331694   -264.748776878475

 Symmetry restored.
 Symmetry transformation completed.

 Number of N-1 electron functions:              12
 Number of N-2 electron functions:              78
 Number of singly external CSFs:               750
 Number of doubly external CSFs:            844332
 Total number of CSFs:                      845083

 Pair and operator lists are different

 Length of J-op  integral file:             462.28 MB
 Length of K-op  integral file:             502.25 MB
 Length of 3-ext integral record:             0.00 MB

 Memory could be reduced to 38.71 Mwords without degradation in triples

 Integral transformation finished. Total CPU:   1.28 sec, npass=  1  Memory used:   7.09 MW

 Reference energy:                   -263.78535055

 Adding F12 terms to K(Cij), methodcc=6,  factor=1.0

 ITER.      SQ.NORM     CORR.ENERGY   TOTAL ENERGY   ENERGY CHANGE        DEN1      VAR(S)    VAR(P)  DIIS     TIME
   1      1.20219564    -0.86279996  -264.64815051     0.01807999     0.04672994  0.72D-02  0.56D-02  1  1     9.46
   2      1.21651700    -0.85856900  -264.64391955     0.00423096    -0.02016338  0.86D-04  0.59D-03  2  2    10.33
   3      1.22188191    -0.85866525  -264.64401580    -0.00009625    -0.00236551  0.13D-03  0.32D-04  3  3    11.18
   4      1.22468592    -0.85853716  -264.64388770     0.00012809    -0.00141214  0.76D-05  0.41D-05  4  4    12.04
   5      1.22571705    -0.85849941  -264.64384996     0.00003775    -0.00036677  0.56D-06  0.29D-06  5  5    12.91
   6      1.22587939    -0.85847252  -264.64382307     0.00002689    -0.00000807  0.40D-07  0.24D-07  6  6    13.77
   7      1.22590876    -0.85847010  -264.64382065     0.00000242    -0.00000622  0.25D-08  0.40D-08  6  4    14.63
   8      1.22590905    -0.85846961  -264.64382016     0.00000049     0.00000195  0.39D-09  0.27D-09  6  1    15.50
   9      1.22590966    -0.85846968  -264.64382022    -0.00000007     0.00000056  0.25D-10  0.21D-10  6  2    16.37

 Norm of t1 vector:      0.10600156      S-energy:    -0.00000002      T1 diagnostic:  0.01530001
                                                                       D1 diagnostic:  0.04495658

 Adding energy correction from Wij-K(Fij), methodcc=6  factor=1.0
 
  CCSD correlation energy              -0.858469678097
  MP2-F12 correction (uncoupled)       -0.092491393308
  C*T doubles correction               -0.001475486322
  f12b correction                       0.015408324966


 Total CPU time for triples:     24.98 sec


 RESULTS
 =======

  Reference energy                   -263.769430954337
  F12 singles correction               -0.015919592445

 F12 singles corrections added to reference energy

  New reference energy               -263.785350546782

  F12a singlet correction              -0.080429538108
  F12a triplet correction              -0.013537341522
  F12a total correction                -0.093966879629

 F12a corrections for ansatz F12/3C(FIX) added to CCSD energy
 
  CCSD-F12a singlet pair energy        -0.641930345144
  CCSD-F12a triplet pair energy        -0.310506189696
  CCSD-F12a correlation energy         -0.952436557727

  Triples (T) contribution             -0.037651565853
  Total correlation energy             -0.990088123580

  CCSD-F12a total energy             -264.737787104508
  CCSD[T]-F12a energy                -264.777984797611
  CCSD-T-F12a energy                 -264.774500310734
 !CCSD(T)-F12a total energy          -264.775438670361

 F12b corrections for ansatz F12/3C(FIX) added to CCSD(T)-F12a energy

  CCSD-F12b singlet pair energy        -0.627745361505
  CCSD-F12b triplet pair energy        -0.309282848369
  CCSD-F12b correlation energy         -0.937028232760

  Triples (T) contribution             -0.037651565853
  Total correlation energy             -0.974679798614

  CCSD-F12b total energy             -264.722378779542
  CCSD[T]-F12b energy                -264.762576472645
  CCSD-T-F12b energy                 -264.759091985767
 !CCSD(T)-F12b total energy          -264.760030345395

 Timing summary (sec):

 STEP                 CPU(USER)    SYS     CPU(TOT)    WALL
 Transformation          1.29      0.19      1.48      1.48
 CCSD iterations         7.72      0.53      8.25      8.22
 Triples                24.98      0.77     25.75     25.74
 MP2-F12                 7.37      1.02      8.39      8.40
 F12b energy             0.50      0.00      0.50      0.51

 Program statistics:

 Available memory in ccsd:                99998934
 Min. memory needed in ccsd:               2252999
 Max. memory used in ccsd:                 3011949
 Max. memory used in cckext:               2777209 (10 integral passes)



 **********************************************************************************************************************************
 DATASETS  * FILE   NREC   LENGTH (MB)   RECORD NAMES
              1      20      137.17       500      610      700      900      950      970     1000      129      960     1100   
                                          VAR    BASINP    GEOM    SYMINP    ZMAT    AOBASIS   BASIS     P2S    ABASIS      S 
                                         1400     1410     1200     1210     1080     1600     1650     1700      960(1)  1380   
                                           T        V       H0       H01     AOSYM     SMH    MOLCAS    OPER    ABASIS    JKOP   

              2       5        0.98       700     1000     2100     7360     7350   
                                         GEOM     BASIS     RHF    F12ABS    EF12   

 PROGRAMS   *        TOTAL   CCSD(T)        HF       INT
 CPU TIMES  *        45.94     42.08      0.95      2.80
 REAL TIME  *        48.81 SEC
 DISK USED  *       718.97 MB      
 SF USED    *         1.34 GB      
 GA USED    *         2.40 MB       (max)       0.00 MB       (current)
 **********************************************************************************************************************************

     CCSD(T)-F12        HF-SCF  
   -264.76003035   -263.76943095
 **********************************************************************************************************************************
 Variable memory released
