
 Primary working directories    : /scratch/kee
 Secondary working directories  : /scratch/kee
 Wavefunction directory         : /home/kee/wfu/
 Main file repository           : /scratch/kee/

 ARCHNAME  : Linux/x86_64
 FC        : /opt/intel/composer_xe_2015.0.090/bin/intel64/ifort
 FCVERSION : 15.0.0
 BLASLIB   : -L/opt/intel/mkl/lib/intel64 -lmkl_intel_ilp64 -lmkl_sequential -lmkl_core
 id        : emory

 Nodes     nprocs
 node17       3
 Number of processes for MPI-2 version of Molpro:   nprocs(total)=    4   nprocs(compute)=    3   nprocs(helper)=    1
 ga_uses_ma=false, calling ma_init with nominal heap.
 GA-space will be limited to   8.0 MW (determined by -G option)

 Using customized tuning parameters: mindgm=7; mindgv=32; mindgc=1; mindgr=1; noblas=0; mincuda=1000; minvec=7
 default implementation of scratch files=sf  

 ***,co2h2o
 memory,100,m
 basis avtz
 geomtype = xyz
 geometry = {
 6
       0.00000000
 O     0.01288800    1.16233300    0.00000000
 O     0.01288800   -1.16233300    0.00000000
 O     9.85363900    0.00000000    0.00000000
 H     9.27249900    0.76306800    0.00000000
 H     9.27249900   -0.76306800    0.00000000
 C     0.00363900    0.00000000    0.00000000
 }
 hf
 ccsd(t)-f12
 ---

 Variables initialized (665), CPU time= 0.01 sec
 Commands  initialized (462), CPU time= 0.00 sec, 486 directives.
 Default parameters read. Elapsed time= 0.03 sec

 Checking input...
 Passed
1


                                         ***  PROGRAM SYSTEM MOLPRO  ***
                         Copyright, University College Cardiff Consultants Limited, 2008

                                    Version 2010.1 linked 9 Dec 2014 15:06:28 


 **********************************************************************************************************************************
 LABEL *   co2h2o                                                                        
 Linux-2.6.32-504.el6.x86_64/node17(x86_64) 64 bit mpp version                           DATE: 15-Dec-16          TIME: 00:15:53  
 **********************************************************************************************************************************

 Patch level:      19
 **********************************************************************************************************************************

 Variable memory set to  100000000 words,  buffer space   230000 words

 SETTING BASIS          =    AVTZ
 SETTING GEOMTYPE       =    XYZ

Geometry recognized as XYZ



 Recomputing integrals since basis changed


 Using spherical harmonics

 Library entry O      S aug-cc-pVTZ          selected for orbital group  1
 Library entry O      P aug-cc-pVTZ          selected for orbital group  1
 Library entry O      D aug-cc-pVTZ          selected for orbital group  1
 Library entry O      F aug-cc-pVTZ          selected for orbital group  1
 Library entry H      S aug-cc-pVTZ          selected for orbital group  2
 Library entry H      P aug-cc-pVTZ          selected for orbital group  2
 Library entry H      D aug-cc-pVTZ          selected for orbital group  2
 Library entry C      S aug-cc-pVTZ          selected for orbital group  3
 Library entry C      P aug-cc-pVTZ          selected for orbital group  3
 Library entry C      D aug-cc-pVTZ          selected for orbital group  3
 Library entry C      F aug-cc-pVTZ          selected for orbital group  3

1PROGRAM * SEWARD (Integral evaluation for generally contracted gaussian basis sets)     Author: Roland Lindh, 1990

 Geometry written to block  1 of record 700


 Point group  C2v 



 ATOMIC COORDINATES

 NR  ATOM    CHARGE       X              Y              Z

   1  O       8.00    0.024354790    2.196491044    0.000000000
   2  O       8.00    0.024354790   -2.196491044    0.000000000
   3  O       8.00   18.620679108    0.000000000    0.000000000
   4  H       1.00   17.522483664    1.441989540    0.000000000
   5  H       1.00   17.522483664   -1.441989540    0.000000000
   6  C       6.00    0.006876713    0.000000000    0.000000000

 Bond lengths in Bohr (Angstrom)

 1-6  2.196560581  2-6  2.196560581  3-4  1.812558155  3-5  1.812558155
     (1.162369798)     (1.162369798)     (0.959164466)     (0.959164466)

 Bond angles

  1-6-2  179.08818302   4-3-5  105.41539946

 NUCLEAR CHARGE:                   32
 NUMBER OF PRIMITIVE AOS:         322
 NUMBER OF SYMMETRY AOS:          282
 NUMBER OF CONTRACTIONS:          230   (  84A1  +  68B1  +  45B2  +  33A2  )
 NUMBER OF CORE ORBITALS:           4   (   3A1  +   1B1  +   0B2  +   0A2  )
 NUMBER OF VALENCE ORBITALS:       18   (   8A1  +   6B1  +   3B2  +   1A2  )


 NUCLEAR REPULSION ENERGY   79.35328633


 Eigenvalues of metric

         1 0.379E-03 0.421E-03 0.903E-03 0.185E-02 0.318E-02 0.321E-02 0.405E-02 0.539E-02
         2 0.349E-03 0.392E-03 0.923E-03 0.168E-02 0.175E-02 0.348E-02 0.513E-02 0.627E-02
         3 0.318E-02 0.595E-02 0.136E-01 0.297E-01 0.319E-01 0.365E-01 0.590E-01 0.641E-01
         4 0.348E-02 0.124E-01 0.296E-01 0.362E-01 0.561E-01 0.680E-01 0.111E+00 0.140E+00


 Contracted 2-electron integrals neglected if value below      1.0D-11
 AO integral compression algorithm  1   Integral accuracy      1.0D-11

     156.762 MB (compressed) written to integral file ( 24.9%)

     Node minimum: 46.137 MB, node maximum: 55.312 MB


 NUMBER OF SORTED TWO-ELECTRON INTEGRALS:   30156294.     BUFFER LENGTH:  32768
 NUMBER OF SEGMENTS:   2  SEGMENT LENGTH:   15999663      RECORD LENGTH: 524288

 Memory used in sort:      16.56 MW

 SORT1 READ    78852169. AND WROTE     9348447. INTEGRALS IN     27 RECORDS. CPU TIME:     1.16 SEC, REAL TIME:     1.29 SEC
 SORT2 READ    28103318. AND WROTE    90461370. INTEGRALS IN    528 RECORDS. CPU TIME:     0.37 SEC, REAL TIME:     0.48 SEC

 Node minimum:    30151286.  Node maximum:    30156294. integrals

 OPERATOR DM      FOR CENTER  0  COORDINATES:    0.000000    0.000000    0.000000


 **********************************************************************************************************************************
 DATASETS  * FILE   NREC   LENGTH (MB)   RECORD NAMES
              1      18        3.24       500      610      700      900      950      970     1000      129      960     1100   
                                          VAR    BASINP    GEOM    SYMINP    ZMAT    AOBASIS   BASIS     P2S    ABASIS      S 
                                         1400     1410     1200     1210     1080     1600     1650     1700   
                                           T        V       H0       H01     AOSYM     SMH    MOLCAS    OPER   

 PROGRAMS   *        TOTAL       INT
 CPU TIMES  *         2.99      2.92
 REAL TIME  *         3.40 SEC
 DISK USED  *       484.74 MB      
 GA USED    *         0.00 MB       (max)       0.00 MB       (current)
 **********************************************************************************************************************************

1PROGRAM * RHF-SCF (CLOSED SHELL)       Authors: W. Meyer, H.-J. Werner


 NUMBER OF ELECTRONS:      16+   16-
 CONVERGENCE THRESHOLDS:    1.00E-05 (Density)    1.00E-07 (Energy)
 MAX. NUMBER OF ITERATIONS:       60
 INTERPOLATION TYPE:            DIIS
 INTERPOLATION STEPS:              2 (START)      1 (STEP)
 LEVEL SHIFTS:                  0.00 (CLOSED)  0.00 (OPEN) 



 Orbital guess generated from atomic densities. Full valence occupancy:   11   7   3   1

 Molecular orbital dump at record        2100.2

 Initial alpha occupancy:   8   5   2   1
 Initial beta  occupancy:   8   5   2   1
 Wave function symmetry:    1

 ITERATION    DDIFF          GRAD             ENERGY        2-EL.EN.            DIPOLE MOMENTS         DIIS
    1      0.000D+00      0.000D+00      -263.66016809    353.976245   -1.15213    0.00000    0.00000    0
    2      0.000D+00      0.881D-02      -263.72542144    349.515984   -0.67477    0.00000    0.00000    1
    3      0.141D-01      0.599D-02      -263.76886674    352.052530   -0.79109    0.00000    0.00000    2
    4      0.583D-02      0.563D-03      -263.76936236    351.838237   -0.79503    0.00000    0.00000    3
    5      0.690D-03      0.164D-03      -263.76942042    351.842358   -0.78956    0.00000    0.00000    4
    6      0.256D-03      0.660D-04      -263.76942757    351.856495   -0.79029    0.00000    0.00000    5
    7      0.847D-04      0.162D-04      -263.76942830    351.848273   -0.78983    0.00000    0.00000    6
    8      0.278D-04      0.356D-05      -263.76942835    351.849567   -0.78984    0.00000    0.00000    7
    9      0.761D-05      0.119D-05      -263.76942835    351.849387   -0.78980    0.00000    0.00000    0

 Final occupancy:   8   5   2   1

 !RHF STATE 1.1 Energy               -263.769428354859
 Nuclear energy                        79.35328633
 One-electron energy                 -519.04740841
 Two-electron energy                  175.92469372
 Virial quotient                       -1.00184529
 !RHF STATE 1.1 Dipole moment          -0.78980314     0.00000000     0.00000000
 Dipole moment /Debye                  -2.00734787     0.00000000     0.00000000

 Orbital energies:

         1.1          2.1          3.1          4.1          5.1          6.1          7.1          8.1          9.1         10.1
    -20.655693   -20.567412   -11.464537    -1.533213    -1.352236    -0.803549    -0.717323    -0.583079     0.027747     0.045775

         1.2          2.2          3.2          4.2          5.2          6.2          7.2
    -20.655738    -1.480163    -0.745748    -0.718796    -0.547011     0.047134     0.077132

         1.3          2.3          3.3          4.3
     -0.717307    -0.510202     0.070840     0.158246

         1.4          2.4          3.4
     -0.547005     0.161754     0.264656


 **********************************************************************************************************************************
 DATASETS  * FILE   NREC   LENGTH (MB)   RECORD NAMES
              1      18        3.25       500      610      700      900      950      970     1000      129      960     1100   
                                          VAR    BASINP    GEOM    SYMINP    ZMAT    AOBASIS   BASIS     P2S    ABASIS      S 
                                         1400     1410     1200     1210     1080     1600     1650     1700   
                                           T        V       H0       H01     AOSYM     SMH    MOLCAS    OPER   

              2       3        0.68       700     1000     2100   
                                         GEOM     BASIS     RHF  

 PROGRAMS   *        TOTAL        HF       INT
 CPU TIMES  *         3.95      0.96      2.92
 REAL TIME  *         4.42 SEC
 DISK USED  *       502.24 MB      
 SF USED    *         0.06 MB      
 GA USED    *         0.00 MB       (max)       0.00 MB       (current)
 **********************************************************************************************************************************


1PROGRAM * CCSD (Closed-shell coupled cluster)     Authors: C. Hampel, H.-J. Werner, 1991, M. Deegan, P.J. Knowles, 1992

                                  CCSD-F12 implementation by  H.-J. Werner, 2007

                   Density fitting integral evaluation by F.R. Manby, 2003,2007, G. Knizia, 2010

 Basis set CC-PVTZ/JKFIT generated.      Number of basis functions:   376 
 Basis set AUG-CC-PVTZ/MP2FIT generated. Number of basis functions:   516 

 Convergence thresholds:  THRVAR = 1.00D-08  THRDEN = 1.00D-06

 CCSD(T)     terms to be evaluated (factor= 1.000)


 Number of core orbitals:           4 (   3   1   0   0 )
 Number of closed-shell orbitals:  12 (   5   4   2   1 )
 Number of external orbitals:     214 (  76  63  43  32 )

 Molecular orbitals read from record     2100.2  Type=RHF/CANONICAL (state 1.1)

 MP2-F12 correlation treatment (H.-J. Werner, 2006)
 --------------------------------------------------

 Using MP2-F12 with ansatz 3C(FIX)

 Using projected zeroth-order Hamiltonian (+Z)

 FOCKRIB=T FOCKRIC=T FOCKRIP=T CABSP=T CABSA=T CABSK=T CABSF=T GBC=F EBC=F DMAT=T NOFIK=T NOPAO=1 SOLVE=-1  USEPAO=0
 EXCH_A= T EXCH_B= F EXCH_C= F EXCH_P= F
 
 Geminal basis:    OPTFULL  GEM_TYPE=SLATER  BETA=1.0  NGEM=6

 Optimizing Gaussian exponents for each gem_beta

 Geminal optimization for beta= 1.0000
 Weight function:   m=0, omega= 1.4646

 Augmented Hessian optimization of geminal fit. Trust ratio= 0.40000
 Convergence reached after   2 iterations. Final gradient= 8.24D-16, Step= 4.32D-06, Delta= 1.28D-09
 
 Alpha:                 0.19532     0.81920     2.85917     9.50073    35.69989   197.79328
 Coeff:                 0.27070     0.30552     0.18297     0.10986     0.06810     0.04224
 

 Symmetry turned off. Reference energy:       -263.769428354859

 All pairs explicitly correlated. Number of r12-pairs:           78
 
 AO(A)-basis ORBITAL           loaded. Number of functions:     230
 RI(R)-basis CC-PVTZ/JKFIT     loaded. Number of functions:     376
 DF-basis CC-PVTZ/JKFIT        loaded. Number of functions:     376

 Screening thresholds:   THRAO=  1.00D-10  THRMO=  1.00D-09  THRPROD=  1.00D-09
                         THRSW=  1.00D-05  THROV=  1.00D-12  THRF12=   1.00D-08

 CPU time for Fock operators                      0.84 sec
 
 Construction of ABS:
 Smallest eigenvalue of S          2.57E-04  (threshold= 1.00E-08)
 Ratio eigmin/eigmax               1.83E-06  (threshold= 1.00E-09)
 Smallest eigenvalue of S kept     2.57E-04  (threshold= 2.57E-04, 0 functions deleted, 376 kept)
 
 Construction of CABS:
 Smallest eigenvalue of S          2.30E-08  (threshold= 1.00E-08)
 Ratio eigmin/eigmax               2.30E-08  (threshold= 1.00E-09)
 Smallest eigenvalue of S kept     2.30E-08  (threshold= 2.30E-08, 0 functions deleted, 376 kept)
 
 CPU time for CABS singles                        0.16 sec

 CABS-singles contribution of  -0.01591965 patched into reference energy.
 New reference energy        -263.78534801
 
 AO(A)-basis ORBITAL           loaded. Number of functions:     230
 RI(R)-basis CC-PVTZ/JKFIT     loaded. Number of functions:     376
 DF-basis AUG-CC-PVTZ/MP2FIT   loaded. Number of functions:     516

 Screening thresholds:   THRAO=  1.00D-10  THRMO=  1.00D-09  THRPROD=  1.00D-09
                         THRSW=  1.00D-05  THROV=  1.00D-12  THRF12=   1.00D-08

 CPU time for 3-index integral evaluation         1.63 sec
 CPU time for first  half transformation          0.24 sec ( 8934.4 MFLOP/sec)
 CPU time for second half transformation          0.01 sec ( 9216.5 MFLOP/sec)
 CPU time for sorting                             0.12 sec
 CPU time for fitting                             0.07 sec (19900.7 MFLOP/sec)
 CPU time for tilde quantities                    0.06 sec (30814.7 MFLOP/sec)
 CPU time for assembly                            0.72 sec (32410.4 MFLOP/sec)
 CPU time for tranop_f12                          0.88 sec (33380.6 MFLOP/sec)
 CPU time for f12 integrals (total)               5.71 sec
 F12-matrices built in  3 passes.
 F12-matrices built in  3 passes.
 F12-matrices built in  3 passes.
 F12-matrices built in  3 passes.
 FC-matrix built in  3 passes.
 CPU time for f12 matrices (total)                0.49 sec

 Diagonal F12 approximation with fixed coefficients:  TSING= 0.500,  TTRIP= 0.250 (scaled by -1/beta)

 DF-MP2-F12 energy corrections:
 ------------------------------
 Approx.                                    Singlet             Triplet             Total
 DF-MP2-F12/3*C(DX,FIX)                -0.097450173898     -0.016932622735     -0.114382796632
 DF-MP2-F12/3*C(FIX)                   -0.079868874355     -0.013395529362     -0.093264403717
 DF-MP2-F12/3C(FIX)                    -0.080229877968     -0.013418568264     -0.093648446232

 DF-MP2-F12 correlation energies:
 --------------------------------
 Approx.                                    Singlet             Triplet             Ecorr            Total Energy
 DF-MP2                                -0.537764736475     -0.343099865886     -0.880864602361   -264.666212610744
 DF-MP2-F12/3*C(DX,FIX)                -0.635214910372     -0.360032488621     -0.995247398994   -264.780595407376
 DF-MP2-F12/3*C(FIX)                   -0.617633610830     -0.356495395248     -0.974129006078   -264.759477014461
 DF-MP2-F12/3C(FIX)                    -0.617994614442     -0.356518434150     -0.974513048593   -264.759861056975

 SCS-DF-MP2 energies (F_SING= 1.20000  F_TRIP= 0.62222  F_PARALLEL= 0.33333):
 ----------------------------------------------------------------------------
 SCS-DF-MP2                            -0.858802044766   -264.644150053148
 SCS-DF-MP2-F12/3*C(DX,FIX)            -0.986278107589   -264.771626115972
 SCS-DF-MP2-F12/3*C(FIX)               -0.962979690039   -264.748327698422
 SCS-DF-MP2-F12/3C(FIX)                -0.963427229691   -264.748775238074

 Symmetry restored.
 Symmetry transformation completed.

 Number of N-1 electron functions:              12
 Number of N-2 electron functions:              78
 Number of singly external CSFs:               750
 Number of doubly external CSFs:            844332
 Total number of CSFs:                      845083

 Pair and operator lists are different

 Length of J-op  integral file:             462.28 MB
 Length of K-op  integral file:             502.25 MB
 Length of 3-ext integral record:             0.00 MB

 Memory could be reduced to 38.71 Mwords without degradation in triples

 Integral transformation finished. Total CPU:   1.31 sec, npass=  1  Memory used:   7.09 MW

 Reference energy:                   -263.78534801

 Adding F12 terms to K(Cij), methodcc=6,  factor=1.0

 ITER.      SQ.NORM     CORR.ENERGY   TOTAL ENERGY   ENERGY CHANGE        DEN1      VAR(S)    VAR(P)  DIIS     TIME
   1      1.20219608    -0.86280092  -264.64814893     0.01808017     0.04673030  0.72D-02  0.56D-02  1  1     9.66
   2      1.21651753    -0.85856991  -264.64391791     0.00423101    -0.02016348  0.86D-04  0.59D-03  2  2    10.53
   3      1.22188245    -0.85866615  -264.64401416    -0.00009625    -0.00236550  0.13D-03  0.32D-04  3  3    11.41
   4      1.22468647    -0.85853806  -264.64388606     0.00012810    -0.00141215  0.76D-05  0.41D-05  4  4    12.28
   5      1.22571761    -0.85850031  -264.64384832     0.00003775    -0.00036677  0.56D-06  0.29D-06  5  5    13.16
   6      1.22587995    -0.85847342  -264.64382143     0.00002689    -0.00000807  0.40D-07  0.24D-07  6  6    14.04
   7      1.22590932    -0.85847100  -264.64381901     0.00000242    -0.00000623  0.25D-08  0.40D-08  6  4    14.91
   8      1.22590961    -0.85847051  -264.64381852     0.00000049     0.00000195  0.39D-09  0.27D-09  6  1    15.79
   9      1.22591023    -0.85847058  -264.64381859    -0.00000007     0.00000056  0.25D-10  0.21D-10  6  2    16.68

 Norm of t1 vector:      0.10600180      S-energy:    -0.00000002      T1 diagnostic:  0.01530004
                                                                       D1 diagnostic:  0.04495677

 Adding energy correction from Wij-K(Fij), methodcc=6  factor=1.0
 
  CCSD correlation energy              -0.858470576668
  MP2-F12 correction (uncoupled)       -0.092491280074
  C*T doubles correction               -0.001475485135
  f12b correction                       0.015408320009


 Total CPU time for triples:     27.40 sec


 RESULTS
 =======

  Reference energy                   -263.769428354859
  F12 singles correction               -0.015919653524

 F12 singles corrections added to reference energy

  New reference energy               -263.785348008383

  F12a singlet correction              -0.080429439799
  F12a triplet correction              -0.013537325410
  F12a total correction                -0.093966765209

 F12a corrections for ansatz F12/3C(FIX) added to CCSD energy
 
  CCSD-F12a singlet pair energy        -0.641930726514
  CCSD-F12a triplet pair energy        -0.310506592470
  CCSD-F12a correlation energy         -0.952437341876

  Triples (T) contribution             -0.037651722011
  Total correlation energy             -0.990089063888

  CCSD-F12a total energy             -264.737785350259
  CCSD[T]-F12a energy                -264.777983222654
  CCSD-T-F12a energy                 -264.774498703133
 !CCSD(T)-F12a total energy          -264.775437072270

 F12b corrections for ansatz F12/3C(FIX) added to CCSD(T)-F12a energy

  CCSD-F12b singlet pair energy        -0.627745747765
  CCSD-F12b triplet pair energy        -0.309283251209
  CCSD-F12b correlation energy         -0.937029021867

  Triples (T) contribution             -0.037651722011
  Total correlation energy             -0.974680743878

  CCSD-F12b total energy             -264.722377030250
  CCSD[T]-F12b energy                -264.762574902645
  CCSD-T-F12b energy                 -264.759090383124
 !CCSD(T)-F12b total energy          -264.760028752261

 Timing summary (sec):

 STEP                 CPU(USER)    SYS     CPU(TOT)    WALL
 Transformation          1.32      0.20      1.52      1.51
 CCSD iterations         7.83      0.56      8.39      8.40
 Triples                27.40      0.76     28.16     28.15
 MP2-F12                 7.53      1.14      8.67      8.67
 F12b energy             0.51      0.00      0.51      0.51

 Program statistics:

 Available memory in ccsd:                99998934
 Min. memory needed in ccsd:               2252999
 Max. memory used in ccsd:                 3011949
 Max. memory used in cckext:               2777209 (10 integral passes)



 **********************************************************************************************************************************
 DATASETS  * FILE   NREC   LENGTH (MB)   RECORD NAMES
              1      20      137.17       500      610      700      900      950      970     1000      129      960     1100   
                                          VAR    BASINP    GEOM    SYMINP    ZMAT    AOBASIS   BASIS     P2S    ABASIS      S 
                                         1400     1410     1200     1210     1080     1600     1650     1700      960(1)  1380   
                                           T        V       H0       H01     AOSYM     SMH    MOLCAS    OPER    ABASIS    JKOP   

              2       5        0.98       700     1000     2100     7360     7350   
                                         GEOM     BASIS     RHF    F12ABS    EF12   

 PROGRAMS   *        TOTAL   CCSD(T)        HF       INT
 CPU TIMES  *        48.64     44.69      0.96      2.92
 REAL TIME  *        51.88 SEC
 DISK USED  *       723.97 MB      
 SF USED    *         1.34 GB      
 GA USED    *         2.40 MB       (max)       0.00 MB       (current)
 **********************************************************************************************************************************

     CCSD(T)-F12        HF-SCF  
   -264.76002875   -263.76942835
 **********************************************************************************************************************************
 Variable memory released
