
 Primary working directories    : /scratch/kee
 Secondary working directories  : /scratch/kee
 Wavefunction directory         : /home/kee/wfu/
 Main file repository           : /scratch/kee/

 ARCHNAME  : Linux/x86_64
 FC        : /opt/intel/composer_xe_2015.0.090/bin/intel64/ifort
 FCVERSION : 15.0.0
 BLASLIB   : -L/opt/intel/mkl/lib/intel64 -lmkl_intel_ilp64 -lmkl_sequential -lmkl_core
 id        : emory

 Nodes     nprocs
 node22       3
 Number of processes for MPI-2 version of Molpro:   nprocs(total)=    4   nprocs(compute)=    3   nprocs(helper)=    1
 ga_uses_ma=false, calling ma_init with nominal heap.
 GA-space will be limited to   8.0 MW (determined by -G option)

 Using customized tuning parameters: mindgm=7; mindgv=32; mindgc=1; mindgr=1; noblas=0; mincuda=1000; minvec=7
 default implementation of scratch files=sf  

 ***,co2h2o
 memory,100,m
 basis avtz
 geomtype = xyz
 geometry = {
 6
    -264.76489694
 O     0.82869278    1.16169550    0.00000000
 O     0.82658011   -1.16233555    0.00000000
 O    -4.84123438    0.00191587    0.00000000
 H    -5.42486739    0.76251052    0.00000000
 H    -5.42459928   -0.75888605    0.00000000
 C     0.80876519   -0.00029961    0.00000000
 }
 hf
 ccsd(t)-f12
 ---

 Variables initialized (665), CPU time= 0.00 sec
 Commands  initialized (462), CPU time= 0.01 sec, 486 directives.
 Default parameters read. Elapsed time= 0.04 sec

 Checking input...
 Passed
1


                                         ***  PROGRAM SYSTEM MOLPRO  ***
                         Copyright, University College Cardiff Consultants Limited, 2008

                                    Version 2010.1 linked 9 Dec 2014 15:06:28 


 **********************************************************************************************************************************
 LABEL *   co2h2o                                                                        
 Linux-2.6.32-504.el6.x86_64/node22(x86_64) 64 bit mpp version                           DATE: 12-Dec-16          TIME: 20:11:26  
 **********************************************************************************************************************************

 Patch level:      19
 **********************************************************************************************************************************

 Variable memory set to  100000000 words,  buffer space   230000 words

 SETTING BASIS          =    AVTZ
 SETTING GEOMTYPE       =    XYZ

Geometry recognized as XYZ



 Recomputing integrals since basis changed


 Using spherical harmonics

 Library entry O      S aug-cc-pVTZ          selected for orbital group  1
 Library entry O      P aug-cc-pVTZ          selected for orbital group  1
 Library entry O      D aug-cc-pVTZ          selected for orbital group  1
 Library entry O      F aug-cc-pVTZ          selected for orbital group  1
 Library entry H      S aug-cc-pVTZ          selected for orbital group  2
 Library entry H      P aug-cc-pVTZ          selected for orbital group  2
 Library entry H      D aug-cc-pVTZ          selected for orbital group  2
 Library entry C      S aug-cc-pVTZ          selected for orbital group  3
 Library entry C      P aug-cc-pVTZ          selected for orbital group  3
 Library entry C      D aug-cc-pVTZ          selected for orbital group  3
 Library entry C      F aug-cc-pVTZ          selected for orbital group  3

1PROGRAM * SEWARD (Integral evaluation for generally contracted gaussian basis sets)     Author: Roland Lindh, 1990

 Geometry written to block  1 of record 700


 Point group  Cs  



 ATOMIC COORDINATES

 NR  ATOM    CHARGE       X              Y              Z

   1  O       8.00    1.566002401    2.195286343    0.000000000
   2  O       8.00    1.562010034   -2.196495862    0.000000000
   3  O       8.00   -9.148607116    0.003620470    0.000000000
   4  H       1.00  -10.251513666    1.440936055    0.000000000
   5  H       1.00  -10.251007012   -1.434086799    0.000000000
   6  C       6.00    1.528344714   -0.000566181    0.000000000

 Bond lengths in Bohr (Angstrom)

 1-6  2.196175405  2-6  2.196187724  3-4  1.811706088  3-5  1.811708509
     (1.162165971)     (1.162172490)     (0.958713571)     (0.958714852)

 Bond angles

  1-6-2  178.13918425   4-3-5  105.01947441

 NUCLEAR CHARGE:                   32
 NUMBER OF PRIMITIVE AOS:         322
 NUMBER OF SYMMETRY AOS:          282
 NUMBER OF CONTRACTIONS:          230   ( 152A'  +  78A"  )
 NUMBER OF CORE ORBITALS:           4   (   4A'  +   0A"  )
 NUMBER OF VALENCE ORBITALS:       18   (  14A'  +   4A"  )


 NUCLEAR REPULSION ENERGY   87.32195317


 Eigenvalues of metric

         1 0.347E-03 0.364E-03 0.390E-03 0.395E-03 0.898E-03 0.921E-03 0.165E-02 0.170E-02
         2 0.318E-02 0.348E-02 0.587E-02 0.124E-01 0.135E-01 0.287E-01 0.296E-01 0.314E-01


 Contracted 2-electron integrals neglected if value below      1.0D-11
 AO integral compression algorithm  1   Integral accuracy      1.0D-11

     414.974 MB (compressed) written to integral file ( 25.6%)

     Node minimum: 128.188 MB, node maximum: 146.014 MB


 NUMBER OF SORTED TWO-ELECTRON INTEGRALS:   59950380.     BUFFER LENGTH:  32768
 NUMBER OF SEGMENTS:   4  SEGMENT LENGTH:   15995235      RECORD LENGTH: 524288

 Memory used in sort:      16.55 MW

 SORT1 READ   203043937. AND WROTE    31328592. INTEGRALS IN     92 RECORDS. CPU TIME:     2.29 SEC, REAL TIME:     2.61 SEC
 SORT2 READ    94353345. AND WROTE   179836431. INTEGRALS IN   1467 RECORDS. CPU TIME:     0.87 SEC, REAL TIME:     1.16 SEC

 Node minimum:    59940574.  Node maximum:    59950380. integrals

 OPERATOR DM      FOR CENTER  0  COORDINATES:    0.000000    0.000000    0.000000


 **********************************************************************************************************************************
 DATASETS  * FILE   NREC   LENGTH (MB)   RECORD NAMES
              1      18        3.74       500      610      700      900      950      970     1000      129      960     1100   
                                          VAR    BASINP    GEOM    SYMINP    ZMAT    AOBASIS   BASIS     P2S    ABASIS      S 
                                         1400     1410     1200     1210     1080     1600     1650     1700   
                                           T        V       H0       H01     AOSYM     SMH    MOLCAS    OPER   

 PROGRAMS   *        TOTAL       INT
 CPU TIMES  *         6.62      6.55
 REAL TIME  *         7.39 SEC
 DISK USED  *         1.53 GB      
 GA USED    *         0.00 MB       (max)       0.00 MB       (current)
 **********************************************************************************************************************************

1PROGRAM * RHF-SCF (CLOSED SHELL)       Authors: W. Meyer, H.-J. Werner


 NUMBER OF ELECTRONS:      16+   16-
 CONVERGENCE THRESHOLDS:    1.00E-05 (Density)    1.00E-07 (Energy)
 MAX. NUMBER OF ITERATIONS:       60
 INTERPOLATION TYPE:            DIIS
 INTERPOLATION STEPS:              2 (START)      1 (STEP)
 LEVEL SHIFTS:                  0.00 (CLOSED)  0.00 (OPEN) 



 Orbital guess generated from atomic densities. Full valence occupancy:   18   4

 Molecular orbital dump at record        2100.2

 Initial alpha occupancy:  13   3
 Initial beta  occupancy:  13   3
 Wave function symmetry:    1

 ITERATION    DDIFF          GRAD             ENERGY        2-EL.EN.            DIPOLE MOMENTS         DIIS
    1      0.000D+00      0.000D+00      -263.66112853    370.399959   -1.18424   -0.00012    0.00000    0
    2      0.000D+00      0.628D-02      -263.72624782    365.758124   -0.70324   -0.00009    0.00000    1
    3      0.101D-01      0.426D-02      -263.76927505    368.326290   -0.82199   -0.00009    0.00000    2
    4      0.414D-02      0.402D-03      -263.76977001    368.116479   -0.82510   -0.00009    0.00000    3
    5      0.485D-03      0.117D-03      -263.76982801    368.117227   -0.81987   -0.00009    0.00000    4
    6      0.181D-03      0.473D-04      -263.76983521    368.132005   -0.82057   -0.00009    0.00000    5
    7      0.605D-04      0.115D-04      -263.76983593    368.123584   -0.82013   -0.00009    0.00000    6
    8      0.197D-04      0.254D-05      -263.76983598    368.124890   -0.82014   -0.00009    0.00000    7
    9      0.541D-05      0.851D-06      -263.76983598    368.124691   -0.82011   -0.00009    0.00000    0

 Final occupancy:  13   3

 !RHF STATE 1.1 Energy               -263.769835984903
 Nuclear energy                        87.32195317
 One-electron energy                 -535.15413484
 Two-electron energy                  184.06234569
 Virial quotient                       -1.00183277
 !RHF STATE 1.1 Dipole moment          -0.82010714    -0.00008837     0.00000000
 Dipole moment /Debye                  -2.08436791    -0.00022461     0.00000000

 Orbital energies:

         1.1          2.1          3.1          4.1          5.1          6.1          7.1          8.1          9.1         10.1
    -20.647178   -20.647133   -20.568921   -11.456052    -1.524840    -1.471760    -1.354175    -0.795197    -0.737477    -0.719693

        11.1         12.1         13.1         14.1         15.1
     -0.708792    -0.585556    -0.538543     0.028058     0.047013

         1.2          2.2          3.2          4.2          5.2
     -0.708945    -0.538627    -0.511833     0.077929     0.159080


 **********************************************************************************************************************************
 DATASETS  * FILE   NREC   LENGTH (MB)   RECORD NAMES
              1      18        3.76       500      610      700      900      950      970     1000      129      960     1100   
                                          VAR    BASINP    GEOM    SYMINP    ZMAT    AOBASIS   BASIS     P2S    ABASIS      S 
                                         1400     1410     1200     1210     1080     1600     1650     1700   
                                           T        V       H0       H01     AOSYM     SMH    MOLCAS    OPER   

              2       3        0.96       700     1000     2100   
                                         GEOM     BASIS     RHF  

 PROGRAMS   *        TOTAL        HF       INT
 CPU TIMES  *        10.47      3.85      6.55
 REAL TIME  *        11.45 SEC
 DISK USED  *         1.56 GB      
 SF USED    *         0.12 MB      
 GA USED    *         0.00 MB       (max)       0.00 MB       (current)
 **********************************************************************************************************************************


1PROGRAM * CCSD (Closed-shell coupled cluster)     Authors: C. Hampel, H.-J. Werner, 1991, M. Deegan, P.J. Knowles, 1992

                                  CCSD-F12 implementation by  H.-J. Werner, 2007

                   Density fitting integral evaluation by F.R. Manby, 2003,2007, G. Knizia, 2010

 Basis set CC-PVTZ/JKFIT generated.      Number of basis functions:   376 
 Basis set AUG-CC-PVTZ/MP2FIT generated. Number of basis functions:   516 

 Convergence thresholds:  THRVAR = 1.00D-08  THRDEN = 1.00D-06

 CCSD(T)     terms to be evaluated (factor= 1.000)


 Number of core orbitals:           4 (   4   0 )
 Number of closed-shell orbitals:  12 (   9   3 )
 Number of external orbitals:     214 ( 139  75 )

 Molecular orbitals read from record     2100.2  Type=RHF/CANONICAL (state 1.1)

 MP2-F12 correlation treatment (H.-J. Werner, 2006)
 --------------------------------------------------

 Using MP2-F12 with ansatz 3C(FIX)

 Using projected zeroth-order Hamiltonian (+Z)

 FOCKRIB=T FOCKRIC=T FOCKRIP=T CABSP=T CABSA=T CABSK=T CABSF=T GBC=F EBC=F DMAT=T NOFIK=T NOPAO=1 SOLVE=-1  USEPAO=0
 EXCH_A= T EXCH_B= F EXCH_C= F EXCH_P= F
 
 Geminal basis:    OPTFULL  GEM_TYPE=SLATER  BETA=1.0  NGEM=6

 Optimizing Gaussian exponents for each gem_beta

 Geminal optimization for beta= 1.0000
 Weight function:   m=0, omega= 1.4646

 Augmented Hessian optimization of geminal fit. Trust ratio= 0.40000
 Convergence reached after   2 iterations. Final gradient= 8.24D-16, Step= 4.32D-06, Delta= 1.28D-09
 
 Alpha:                 0.19532     0.81920     2.85917     9.50073    35.69989   197.79328
 Coeff:                 0.27070     0.30552     0.18297     0.10986     0.06810     0.04224
 

 Symmetry turned off. Reference energy:       -263.769835984903

 All pairs explicitly correlated. Number of r12-pairs:           78
 
 AO(A)-basis ORBITAL           loaded. Number of functions:     230
 RI(R)-basis CC-PVTZ/JKFIT     loaded. Number of functions:     376
 DF-basis CC-PVTZ/JKFIT        loaded. Number of functions:     376

 Screening thresholds:   THRAO=  1.00D-10  THRMO=  1.00D-09  THRPROD=  1.00D-09
                         THRSW=  1.00D-05  THROV=  1.00D-12  THRF12=   1.00D-08

 CPU time for Fock operators                      0.89 sec
 
 Construction of ABS:
 Smallest eigenvalue of S          2.57E-04  (threshold= 1.00E-08)
 Ratio eigmin/eigmax               1.83E-06  (threshold= 1.00E-09)
 Smallest eigenvalue of S kept     2.57E-04  (threshold= 2.57E-04, 0 functions deleted, 376 kept)
 
 Construction of CABS:
 Smallest eigenvalue of S          2.30E-08  (threshold= 1.00E-08)
 Ratio eigmin/eigmax               2.30E-08  (threshold= 1.00E-09)
 Smallest eigenvalue of S kept     2.30E-08  (threshold= 2.30E-08, 0 functions deleted, 376 kept)
 
 CPU time for CABS singles                        0.16 sec

 CABS-singles contribution of  -0.01592176 patched into reference energy.
 New reference energy        -263.78575774
 
 AO(A)-basis ORBITAL           loaded. Number of functions:     230
 RI(R)-basis CC-PVTZ/JKFIT     loaded. Number of functions:     376
 DF-basis AUG-CC-PVTZ/MP2FIT   loaded. Number of functions:     516

 Screening thresholds:   THRAO=  1.00D-10  THRMO=  1.00D-09  THRPROD=  1.00D-09
                         THRSW=  1.00D-05  THROV=  1.00D-12  THRF12=   1.00D-08

 CPU time for 3-index integral evaluation         2.09 sec
 CPU time for first  half transformation          0.19 sec (14158.3 MFLOP/sec)
 CPU time for second half transformation          0.03 sec ( 3422.7 MFLOP/sec)
 CPU time for sorting                             0.13 sec
 CPU time for fitting                             0.04 sec (34826.3 MFLOP/sec)
 CPU time for tilde quantities                    0.06 sec (30814.7 MFLOP/sec)
 CPU time for assembly                            0.78 sec (30292.1 MFLOP/sec)
 CPU time for tranop_f12                          0.85 sec (35502.1 MFLOP/sec)
 CPU time for f12 integrals (total)               6.16 sec
 F12-matrices built in  3 passes.
 F12-matrices built in  3 passes.
 F12-matrices built in  3 passes.
 F12-matrices built in  3 passes.
 FC-matrix built in  3 passes.
 CPU time for f12 matrices (total)                0.48 sec

 Diagonal F12 approximation with fixed coefficients:  TSING= 0.500,  TTRIP= 0.250 (scaled by -1/beta)

 DF-MP2-F12 energy corrections:
 ------------------------------
 Approx.                                    Singlet             Triplet             Total
 DF-MP2-F12/3*C(DX,FIX)                -0.097447104238     -0.016933018984     -0.114380123222
 DF-MP2-F12/3*C(FIX)                   -0.079864885193     -0.013395134034     -0.093260019227
 DF-MP2-F12/3C(FIX)                    -0.080225601672     -0.013418363738     -0.093643965409

 DF-MP2-F12 correlation energies:
 --------------------------------
 Approx.                                    Singlet             Triplet             Ecorr            Total Energy
 DF-MP2                                -0.537696267108     -0.343061000691     -0.880757267799   -264.666515009979
 DF-MP2-F12/3*C(DX,FIX)                -0.635143371346     -0.359994019674     -0.995137391021   -264.780895133202
 DF-MP2-F12/3*C(FIX)                   -0.617561152301     -0.356456134725     -0.974017287026   -264.759775029207
 DF-MP2-F12/3C(FIX)                    -0.617921868779     -0.356479364428     -0.974401233208   -264.760158975389

 SCS-DF-MP2 energies (F_SING= 1.20000  F_TRIP= 0.62222  F_PARALLEL= 0.33333):
 ----------------------------------------------------------------------------
 SCS-DF-MP2                            -0.858695698737   -264.644453440918
 SCS-DF-MP2-F12/3*C(DX,FIX)            -0.986168324524   -264.771926066705
 SCS-DF-MP2-F12/3*C(FIX)               -0.962868311035   -264.748626053215
 SCS-DF-MP2-F12/3C(FIX)                -0.963315624846   -264.749073367027

 Symmetry restored.
 Symmetry transformation completed.

 Number of N-1 electron functions:              12
 Number of N-2 electron functions:              78
 Number of singly external CSFs:              1476
 Number of doubly external CSFs:           1686804
 Total number of CSFs:                     1688281

 Pair and operator lists are different

 Length of J-op  integral file:             466.42 MB
 Length of K-op  integral file:             526.62 MB
 Length of 3-ext integral record:             0.00 MB

 Memory could be reduced to 76.61 Mwords without degradation in triples

 Integral transformation finished. Total CPU:   3.99 sec, npass=  1  Memory used:  24.61 MW

 Reference energy:                   -263.78575774

 Adding F12 terms to K(Cij), methodcc=6,  factor=1.0

 ITER.      SQ.NORM     CORR.ENERGY   TOTAL ENERGY   ENERGY CHANGE        DEN1      VAR(S)    VAR(P)  DIIS     TIME
   1      1.20212061    -0.86271923  -264.64847697     0.01805441     0.04667037  0.72D-02  0.56D-02  1  1    14.59
   2      1.21642698    -0.85849776  -264.64425551     0.00422146    -0.02014335  0.86D-04  0.59D-03  2  2    17.20
   3      1.22178678    -0.85859487  -264.64435261    -0.00009710    -0.00236407  0.13D-03  0.32D-04  3  3    20.06
   4      1.22458825    -0.85846719  -264.64422493     0.00012768    -0.00141110  0.76D-05  0.41D-05  4  4    23.00
   5      1.22561794    -0.85842953  -264.64418727     0.00003766    -0.00036619  0.56D-06  0.29D-06  5  5    25.91
   6      1.22578008    -0.85840267  -264.64416041     0.00002686    -0.00000805  0.40D-07  0.24D-07  6  6    28.84
   7      1.22580943    -0.85840025  -264.64415799     0.00000242    -0.00000621  0.25D-08  0.40D-08  6  4    31.80
   8      1.22580973    -0.85839976  -264.64415750     0.00000049     0.00000194  0.39D-09  0.27D-09  6  1    34.79
   9      1.22581034    -0.85839983  -264.64415757    -0.00000007     0.00000056  0.26D-10  0.21D-10  6  2    37.73

 Norm of t1 vector:      0.10595153      S-energy:    -0.00000003      T1 diagnostic:  0.01529279
                                                                       D1 diagnostic:  0.04497045

 Adding energy correction from Wij-K(Fij), methodcc=6  factor=1.0
 
  CCSD correlation energy              -0.858399825759
  MP2-F12 correction (uncoupled)       -0.092488127928
  C*T doubles correction               -0.001474706183
  f12b correction                       0.015406726460


 Total CPU time for triples:     78.71 sec


 RESULTS
 =======

  Reference energy                   -263.769835984903
  F12 singles correction               -0.015921757278

 F12 singles corrections added to reference energy

  New reference energy               -263.785757742181

  F12a singlet correction              -0.080425730801
  F12a triplet correction              -0.013537103311
  F12a total correction                -0.093962834112

 F12a corrections for ansatz F12/3C(FIX) added to CCSD energy
 
  CCSD-F12a singlet pair energy        -0.641858762899
  CCSD-F12a triplet pair energy        -0.310503871764
  CCSD-F12a correlation energy         -0.952362659871

  Triples (T) contribution             -0.037634554427
  Total correlation energy             -0.989997214298

  CCSD-F12a total energy             -264.738120402052
  CCSD[T]-F12a energy                -264.778296953634
  CCSD-T-F12a energy                 -264.774818219911
 !CCSD(T)-F12a total energy          -264.775754956479

 F12b corrections for ansatz F12/3C(FIX) added to CCSD(T)-F12a energy

  CCSD-F12b singlet pair energy        -0.627675417713
  CCSD-F12b triplet pair energy        -0.309280490490
  CCSD-F12b correlation energy         -0.936955933411

  Triples (T) contribution             -0.037634554427
  Total correlation energy             -0.974590487837

  CCSD-F12b total energy             -264.722713675592
  CCSD[T]-F12b energy                -264.762890227174
  CCSD-T-F12b energy                 -264.759411493451
 !CCSD(T)-F12b total energy          -264.760348230018

 Timing summary (sec):

 STEP                 CPU(USER)    SYS     CPU(TOT)    WALL
 Transformation          4.02      0.51      4.53      4.54
 CCSD iterations        25.65      1.42     27.07     27.08
 Triples                78.71      1.60     80.31     80.29
 MP2-F12                 8.08      1.13      9.21      9.19
 F12b energy             1.71      0.03      1.74      1.74

 Program statistics:

 Available memory in ccsd:                99998934
 Min. memory needed in ccsd:               4458306
 Max. memory used in ccsd:                 5958390
 Max. memory used in cckext:               6352469 (10 integral passes)



 **********************************************************************************************************************************
 DATASETS  * FILE   NREC   LENGTH (MB)   RECORD NAMES
              1      20      269.66       500      610      700      900      950      970     1000      129      960     1100   
                                          VAR    BASINP    GEOM    SYMINP    ZMAT    AOBASIS   BASIS     P2S    ABASIS      S 
                                         1400     1410     1200     1210     1080     1600     1650     1700      960(1)  1380   
                                           T        V       H0       H01     AOSYM     SMH    MOLCAS    OPER    ABASIS    JKOP   

              2       5        1.55       700     1000     2100     7360     7350   
                                         GEOM     BASIS     RHF    F12ABS    EF12   

 PROGRAMS   *        TOTAL   CCSD(T)        HF       INT
 CPU TIMES  *       128.71    118.23      3.85      6.55
 REAL TIME  *       134.60 SEC
 DISK USED  *         2.00 GB      
 SF USED    *         1.53 GB      
 GA USED    *         2.40 MB       (max)       0.00 MB       (current)
 **********************************************************************************************************************************

     CCSD(T)-F12        HF-SCF  
   -264.76034823   -263.76983598
 **********************************************************************************************************************************
 Variable memory released
