
 Primary working directories    : /scratch/kee
 Secondary working directories  : /scratch/kee
 Wavefunction directory         : /home/kee/wfu/
 Main file repository           : /scratch/kee/

 ARCHNAME  : Linux/x86_64
 FC        : /opt/intel/composer_xe_2015.0.090/bin/intel64/ifort
 FCVERSION : 15.0.0
 BLASLIB   : -L/opt/intel/mkl/lib/intel64 -lmkl_intel_ilp64 -lmkl_sequential -lmkl_core
 id        : emory

 Nodes     nprocs
 node22       3
 Number of processes for MPI-2 version of Molpro:   nprocs(total)=    4   nprocs(compute)=    3   nprocs(helper)=    1
 ga_uses_ma=false, calling ma_init with nominal heap.
 GA-space will be limited to   8.0 MW (determined by -G option)

 Using customized tuning parameters: mindgm=7; mindgv=32; mindgc=1; mindgr=1; noblas=0; mincuda=1000; minvec=7
 default implementation of scratch files=sf  

 ***,co2h2o
 memory,100,m
 basis avtz
 geomtype = xyz
 geometry = {
 6
    -264.76489694
 O     0.82869278    1.16169550    0.00000000
 O     0.82658011   -1.16233555    0.00000000
 O    -1.29123465    0.00052384    0.00000000
 H    -1.87486766    0.76111849    0.00000000
 H    -1.87459955   -0.76027808    0.00000000
 C     0.80876519   -0.00029961    0.00000000
 }
 hf
 ccsd(t)-f12
 ---

 Variables initialized (665), CPU time= 0.00 sec
 Commands  initialized (462), CPU time= 0.01 sec, 486 directives.
 Default parameters read. Elapsed time= 0.06 sec

 Checking input...
 Passed
1


                                         ***  PROGRAM SYSTEM MOLPRO  ***
                         Copyright, University College Cardiff Consultants Limited, 2008

                                    Version 2010.1 linked 9 Dec 2014 15:06:28 


 **********************************************************************************************************************************
 LABEL *   co2h2o                                                                        
 Linux-2.6.32-504.el6.x86_64/node22(x86_64) 64 bit mpp version                           DATE: 12-Dec-16          TIME: 17:29:18  
 **********************************************************************************************************************************

 Patch level:      19
 **********************************************************************************************************************************

 Variable memory set to  100000000 words,  buffer space   230000 words

 SETTING BASIS          =    AVTZ
 SETTING GEOMTYPE       =    XYZ

Geometry recognized as XYZ



 Recomputing integrals since basis changed


 Using spherical harmonics

 Library entry O      S aug-cc-pVTZ          selected for orbital group  1
 Library entry O      P aug-cc-pVTZ          selected for orbital group  1
 Library entry O      D aug-cc-pVTZ          selected for orbital group  1
 Library entry O      F aug-cc-pVTZ          selected for orbital group  1
 Library entry H      S aug-cc-pVTZ          selected for orbital group  2
 Library entry H      P aug-cc-pVTZ          selected for orbital group  2
 Library entry H      D aug-cc-pVTZ          selected for orbital group  2
 Library entry C      S aug-cc-pVTZ          selected for orbital group  3
 Library entry C      P aug-cc-pVTZ          selected for orbital group  3
 Library entry C      D aug-cc-pVTZ          selected for orbital group  3
 Library entry C      F aug-cc-pVTZ          selected for orbital group  3

1PROGRAM * SEWARD (Integral evaluation for generally contracted gaussian basis sets)     Author: Roland Lindh, 1990

 Geometry written to block  1 of record 700


 Point group  Cs  



 ATOMIC COORDINATES

 NR  ATOM    CHARGE       X              Y              Z

   1  O       8.00    1.566002401    2.195286343    0.000000000
   2  O       8.00    1.562010034   -2.196495862    0.000000000
   3  O       8.00   -2.440079860    0.000989914    0.000000000
   4  H       1.00   -3.542986410    1.438305500    0.000000000
   5  H       1.00   -3.542479756   -1.436717355    0.000000000
   6  C       6.00    1.528344714   -0.000566181    0.000000000

 Bond lengths in Bohr (Angstrom)

 1-6  2.196175405  2-6  2.196187724  3-4  1.811706088  3-5  1.811708509
     (1.162165971)     (1.162172490)     (0.958713571)     (0.958714852)

 Bond angles

  1-6-2  178.13918425   4-3-5  105.01947441

 NUCLEAR CHARGE:                   32
 NUMBER OF PRIMITIVE AOS:         322
 NUMBER OF SYMMETRY AOS:          282
 NUMBER OF CONTRACTIONS:          230   ( 152A'  +  78A"  )
 NUMBER OF CORE ORBITALS:           4   (   4A'  +   0A"  )
 NUMBER OF VALENCE ORBITALS:       18   (  14A'  +   4A"  )


 NUCLEAR REPULSION ENERGY  115.51738342


 Eigenvalues of metric

         1 0.199E-03 0.208E-03 0.255E-03 0.302E-03 0.378E-03 0.688E-03 0.783E-03 0.125E-02
         2 0.283E-02 0.347E-02 0.471E-02 0.112E-01 0.120E-01 0.222E-01 0.287E-01 0.291E-01


 Contracted 2-electron integrals neglected if value below      1.0D-11
 AO integral compression algorithm  1   Integral accuracy      1.0D-11

     817.103 MB (compressed) written to integral file ( 49.2%)

     Node minimum: 267.387 MB, node maximum: 277.873 MB


 NUMBER OF SORTED TWO-ELECTRON INTEGRALS:   59950380.     BUFFER LENGTH:  32768
 NUMBER OF SEGMENTS:   4  SEGMENT LENGTH:   15995235      RECORD LENGTH: 524288

 Memory used in sort:      16.55 MW

 SORT1 READ   207531521. AND WROTE    58205885. INTEGRALS IN    168 RECORDS. CPU TIME:     2.95 SEC, REAL TIME:     3.51 SEC
 SORT2 READ   174897651. AND WROTE   179836431. INTEGRALS IN   3060 RECORDS. CPU TIME:     0.96 SEC, REAL TIME:     1.43 SEC

 Node minimum:    59940574.  Node maximum:    59950380. integrals

 OPERATOR DM      FOR CENTER  0  COORDINATES:    0.000000    0.000000    0.000000


 **********************************************************************************************************************************
 DATASETS  * FILE   NREC   LENGTH (MB)   RECORD NAMES
              1      18        3.74       500      610      700      900      950      970     1000      129      960     1100   
                                          VAR    BASINP    GEOM    SYMINP    ZMAT    AOBASIS   BASIS     P2S    ABASIS      S 
                                         1400     1410     1200     1210     1080     1600     1650     1700   
                                           T        V       H0       H01     AOSYM     SMH    MOLCAS    OPER   

 PROGRAMS   *        TOTAL       INT
 CPU TIMES  *         8.25      8.15
 REAL TIME  *         9.50 SEC
 DISK USED  *         2.88 GB      
 GA USED    *         0.00 MB       (max)       0.00 MB       (current)
 **********************************************************************************************************************************

1PROGRAM * RHF-SCF (CLOSED SHELL)       Authors: W. Meyer, H.-J. Werner


 NUMBER OF ELECTRONS:      16+   16-
 CONVERGENCE THRESHOLDS:    1.00E-05 (Density)    1.00E-07 (Energy)
 MAX. NUMBER OF ITERATIONS:       60
 INTERPOLATION TYPE:            DIIS
 INTERPOLATION STEPS:              2 (START)      1 (STEP)
 LEVEL SHIFTS:                  0.00 (CLOSED)  0.00 (OPEN) 



 Orbital guess generated from atomic densities. Full valence occupancy:   18   4

 Molecular orbital dump at record        2100.2

 Initial alpha occupancy:  13   3
 Initial beta  occupancy:  13   3
 Wave function symmetry:    1

 ITERATION    DDIFF          GRAD             ENERGY        2-EL.EN.            DIPOLE MOMENTS         DIIS
    1      0.000D+00      0.000D+00      -263.65345355    427.832629   -1.40739    0.00005    0.00000    0
    2      0.000D+00      0.605D-02      -263.71641527    423.095564   -1.12406    0.00006    0.00000    1
    3      0.990D-02      0.395D-02      -263.75277760    425.316358   -1.11990    0.00011    0.00000    2
    4      0.388D-02      0.420D-03      -263.75334432    425.233242   -1.10904    0.00008    0.00000    3
    5      0.519D-03      0.135D-03      -263.75341152    425.177755   -1.10156    0.00009    0.00000    4
    6      0.197D-03      0.525D-04      -263.75342031    425.201595   -1.10129    0.00009    0.00000    5
    7      0.637D-04      0.104D-04      -263.75342100    425.193994   -1.10084    0.00009    0.00000    6
    8      0.201D-04      0.236D-05      -263.75342104    425.195624   -1.10091    0.00009    0.00000    7
    9      0.486D-05      0.840D-06      -263.75342104    425.195227   -1.10090    0.00009    0.00000    0

 Final occupancy:  13   3

 !RHF STATE 1.1 Energy               -263.753421043027
 Nuclear energy                       115.51738342
 One-electron energy                 -591.86841780
 Two-electron energy                  212.59761334
 Virial quotient                       -1.00101885
 !RHF STATE 1.1 Dipole moment          -1.10090478     0.00008931     0.00000000
 Dipole moment /Debye                  -2.79803758     0.00022699     0.00000000

 Orbital energies:

         1.1          2.1          3.1          4.1          5.1          6.1          7.1          8.1          9.1         10.1
    -20.611103   -20.611053   -20.588599   -11.431665    -1.498523    -1.443024    -1.382161    -0.772018    -0.747272    -0.722038

        11.1         12.1         13.1         14.1         15.1
     -0.710581    -0.573662    -0.513876     0.022569     0.046832

         1.2          2.2          3.2          4.2          5.2
     -0.682518    -0.539127    -0.509374     0.082751     0.163732


 **********************************************************************************************************************************
 DATASETS  * FILE   NREC   LENGTH (MB)   RECORD NAMES
              1      18        3.76       500      610      700      900      950      970     1000      129      960     1100   
                                          VAR    BASINP    GEOM    SYMINP    ZMAT    AOBASIS   BASIS     P2S    ABASIS      S 
                                         1400     1410     1200     1210     1080     1600     1650     1700   
                                           T        V       H0       H01     AOSYM     SMH    MOLCAS    OPER   

              2       3        0.96       700     1000     2100   
                                         GEOM     BASIS     RHF  

 PROGRAMS   *        TOTAL        HF       INT
 CPU TIMES  *        11.92      3.67      8.15
 REAL TIME  *        13.57 SEC
 DISK USED  *         2.91 GB      
 SF USED    *         0.12 MB      
 GA USED    *         0.00 MB       (max)       0.00 MB       (current)
 **********************************************************************************************************************************


1PROGRAM * CCSD (Closed-shell coupled cluster)     Authors: C. Hampel, H.-J. Werner, 1991, M. Deegan, P.J. Knowles, 1992

                                  CCSD-F12 implementation by  H.-J. Werner, 2007

                   Density fitting integral evaluation by F.R. Manby, 2003,2007, G. Knizia, 2010

 Basis set CC-PVTZ/JKFIT generated.      Number of basis functions:   376 
 Basis set AUG-CC-PVTZ/MP2FIT generated. Number of basis functions:   516 

 Convergence thresholds:  THRVAR = 1.00D-08  THRDEN = 1.00D-06

 CCSD(T)     terms to be evaluated (factor= 1.000)


 Number of core orbitals:           4 (   4   0 )
 Number of closed-shell orbitals:  12 (   9   3 )
 Number of external orbitals:     214 ( 139  75 )

 Molecular orbitals read from record     2100.2  Type=RHF/CANONICAL (state 1.1)

 MP2-F12 correlation treatment (H.-J. Werner, 2006)
 --------------------------------------------------

 Using MP2-F12 with ansatz 3C(FIX)

 Using projected zeroth-order Hamiltonian (+Z)

 FOCKRIB=T FOCKRIC=T FOCKRIP=T CABSP=T CABSA=T CABSK=T CABSF=T GBC=F EBC=F DMAT=T NOFIK=T NOPAO=1 SOLVE=-1  USEPAO=0
 EXCH_A= T EXCH_B= F EXCH_C= F EXCH_P= F
 
 Geminal basis:    OPTFULL  GEM_TYPE=SLATER  BETA=1.0  NGEM=6

 Optimizing Gaussian exponents for each gem_beta

 Geminal optimization for beta= 1.0000
 Weight function:   m=0, omega= 1.4646

 Augmented Hessian optimization of geminal fit. Trust ratio= 0.40000
 Convergence reached after   2 iterations. Final gradient= 8.24D-16, Step= 4.32D-06, Delta= 1.28D-09
 
 Alpha:                 0.19532     0.81920     2.85917     9.50073    35.69989   197.79328
 Coeff:                 0.27070     0.30552     0.18297     0.10986     0.06810     0.04224
 

 Symmetry turned off. Reference energy:       -263.753421043027

 All pairs explicitly correlated. Number of r12-pairs:           78
 
 AO(A)-basis ORBITAL           loaded. Number of functions:     230
 RI(R)-basis CC-PVTZ/JKFIT     loaded. Number of functions:     376
 DF-basis CC-PVTZ/JKFIT        loaded. Number of functions:     376

 Screening thresholds:   THRAO=  1.00D-10  THRMO=  1.00D-09  THRPROD=  1.00D-09
                         THRSW=  1.00D-05  THROV=  1.00D-12  THRF12=   1.00D-08

 CPU time for Fock operators                      0.87 sec
 
 Construction of ABS:
 Smallest eigenvalue of S          2.22E-04  (threshold= 1.00E-08)
 Ratio eigmin/eigmax               1.58E-06  (threshold= 1.00E-09)
 Smallest eigenvalue of S kept     2.22E-04  (threshold= 2.22E-04, 0 functions deleted, 376 kept)
 
 Construction of CABS:
 Smallest eigenvalue of S          2.21E-08  (threshold= 1.00E-08)
 Ratio eigmin/eigmax               2.21E-08  (threshold= 1.00E-09)
 Smallest eigenvalue of S kept     2.21E-08  (threshold= 2.21E-08, 0 functions deleted, 376 kept)
 
 CPU time for CABS singles                        0.15 sec

 CABS-singles contribution of  -0.01592961 patched into reference energy.
 New reference energy        -263.76935065
 
 AO(A)-basis ORBITAL           loaded. Number of functions:     230
 RI(R)-basis CC-PVTZ/JKFIT     loaded. Number of functions:     376
 DF-basis AUG-CC-PVTZ/MP2FIT   loaded. Number of functions:     516

 Screening thresholds:   THRAO=  1.00D-10  THRMO=  1.00D-09  THRPROD=  1.00D-09
                         THRSW=  1.00D-05  THROV=  1.00D-12  THRF12=   1.00D-08

 CPU time for 3-index integral evaluation         2.76 sec
 CPU time for first  half transformation          0.19 sec (15973.1 MFLOP/sec)
 CPU time for second half transformation          0.03 sec ( 3350.3 MFLOP/sec)
 CPU time for sorting                             0.15 sec
 CPU time for fitting                             0.04 sec (34826.3 MFLOP/sec)
 CPU time for tilde quantities                    0.06 sec (30814.7 MFLOP/sec)
 CPU time for assembly                            0.66 sec (35801.3 MFLOP/sec)
 CPU time for tranop_f12                          0.76 sec (39823.1 MFLOP/sec)
 CPU time for f12 integrals (total)               6.41 sec
 F12-matrices built in  3 passes.
 F12-matrices built in  3 passes.
 F12-matrices built in  3 passes.
 F12-matrices built in  3 passes.
 FC-matrix built in  3 passes.
 CPU time for f12 matrices (total)                0.43 sec

 Diagonal F12 approximation with fixed coefficients:  TSING= 0.500,  TTRIP= 0.250 (scaled by -1/beta)

 DF-MP2-F12 energy corrections:
 ------------------------------
 Approx.                                    Singlet             Triplet             Total
 DF-MP2-F12/3*C(DX,FIX)                -0.097624216453     -0.017212934308     -0.114837150760
 DF-MP2-F12/3*C(FIX)                   -0.079946250267     -0.013694586403     -0.093640836670
 DF-MP2-F12/3C(FIX)                    -0.080320099077     -0.013751658115     -0.094071757192

 DF-MP2-F12 correlation energies:
 --------------------------------
 Approx.                                    Singlet             Triplet             Ecorr            Total Energy
 DF-MP2                                -0.537915431646     -0.347965623164     -0.885881054810   -264.655231705839
 DF-MP2-F12/3*C(DX,FIX)                -0.635539648099     -0.365178557472     -1.000718205571   -264.770068856600
 DF-MP2-F12/3*C(FIX)                   -0.617861681913     -0.361660209567     -0.979521891480   -264.748872542510
 DF-MP2-F12/3C(FIX)                    -0.618235530723     -0.361717281279     -0.979952812002   -264.749303463031

 SCS-DF-MP2 energies (F_SING= 1.20000  F_TRIP= 0.62222  F_PARALLEL= 0.33333):
 ----------------------------------------------------------------------------
 SCS-DF-MP2                            -0.862010461278   -264.631361112307
 SCS-DF-MP2-F12/3*C(DX,FIX)            -0.989869791257   -264.759220442286
 SCS-DF-MP2-F12/3*C(FIX)               -0.966467037582   -264.735817688611
 SCS-DF-MP2-F12/3C(FIX)                -0.966951167441   -264.736301818470

 Symmetry restored.
 Symmetry transformation completed.

 Number of N-1 electron functions:              12
 Number of N-2 electron functions:              78
 Number of singly external CSFs:              1476
 Number of doubly external CSFs:           1686804
 Total number of CSFs:                     1688281

 Pair and operator lists are different

 Length of J-op  integral file:             466.42 MB
 Length of K-op  integral file:             526.62 MB
 Length of 3-ext integral record:             0.00 MB

 Memory could be reduced to 76.61 Mwords without degradation in triples

 Integral transformation finished. Total CPU:   3.53 sec, npass=  1  Memory used:  24.61 MW

 Reference energy:                   -263.76935065

 Adding F12 terms to K(Cij), methodcc=6,  factor=1.0

 ITER.      SQ.NORM     CORR.ENERGY   TOTAL ENERGY   ENERGY CHANGE        DEN1      VAR(S)    VAR(P)  DIIS     TIME
   1      1.20119849    -0.86736557  -264.63671622     0.01852240     0.04678832  0.72D-02  0.54D-02  1  1    14.10
   2      1.21536940    -0.86328521  -264.63263586     0.00408035    -0.02002965  0.94D-04  0.57D-03  2  2    16.58
   3      1.22074460    -0.86343122  -264.63278187    -0.00014601    -0.00230958  0.14D-03  0.31D-04  3  3    19.07
   4      1.22359449    -0.86329732  -264.63264797     0.00013391    -0.00140987  0.90D-05  0.41D-05  4  4    21.53
   5      1.22467552    -0.86326191  -264.63261256     0.00003541    -0.00036918  0.90D-06  0.30D-06  5  5    24.07
   6      1.22485997    -0.86323360  -264.63258425     0.00002831    -0.00000781  0.70D-07  0.34D-07  6  6    26.54
   7      1.22490031    -0.86323040  -264.63258105     0.00000320    -0.00000716  0.10D-07  0.47D-08  6  2    29.04
   8      1.22490283    -0.86322996  -264.63258061     0.00000044     0.00000189  0.82D-09  0.50D-09  6  1    31.62
   9      1.22490339    -0.86323014  -264.63258079    -0.00000018     0.00000098  0.11D-09  0.49D-10  6  4    34.20

 Norm of t1 vector:      0.10789304      S-energy:     0.00000014      T1 diagnostic:  0.01557302
                                                                       D1 diagnostic:  0.04842261

 Adding energy correction from Wij-K(Fij), methodcc=6  factor=1.0
 
  CCSD correlation energy              -0.863230140518
  MP2-F12 correction (uncoupled)       -0.092866044273
  C*T doubles correction               -0.001495496585
  f12b correction                       0.015445896281


 Total CPU time for triples:     66.58 sec


 RESULTS
 =======

  Reference energy                   -263.753421043027
  F12 singles correction               -0.015929608002

 F12 singles corrections added to reference energy

  New reference energy               -263.769350651029

  F12a singlet correction              -0.080512437718
  F12a triplet correction              -0.013849103140
  F12a total correction                -0.094361540858

 F12a corrections for ansatz F12/3C(FIX) added to CCSD energy
 
  CCSD-F12a singlet pair energy        -0.641331469316
  CCSD-F12a triplet pair energy        -0.316260350026
  CCSD-F12a correlation energy         -0.957591681376

  Triples (T) contribution             -0.038324243723
  Total correlation energy             -0.995915925099

  CCSD-F12a total energy             -264.726942332405
  CCSD[T]-F12a energy                -264.767818872361
  CCSD-T-F12a energy                 -264.764351387655
 !CCSD(T)-F12a total energy          -264.765266576128

 F12b corrections for ansatz F12/3C(FIX) added to CCSD(T)-F12a energy

  CCSD-F12b singlet pair energy        -0.627144212405
  CCSD-F12b triplet pair energy        -0.315001710656
  CCSD-F12b correlation energy         -0.942145785095

  Triples (T) contribution             -0.038324243723
  Total correlation energy             -0.980470028818

  CCSD-F12b total energy             -264.711496436124
  CCSD[T]-F12b energy                -264.752372976080
  CCSD-T-F12b energy                 -264.748905491374
 !CCSD(T)-F12b total energy          -264.749820679848

 Timing summary (sec):

 STEP                 CPU(USER)    SYS     CPU(TOT)    WALL
 Transformation          3.55      0.50      4.05      4.05
 CCSD iterations        22.45      1.49     23.94     23.95
 Triples                66.58      1.43     68.01     67.98
 MP2-F12                 8.21      1.06      9.27      9.27
 F12b energy             1.65      0.03      1.68      1.69

 Program statistics:

 Available memory in ccsd:                99998934
 Min. memory needed in ccsd:               4458306
 Max. memory used in ccsd:                 5958390
 Max. memory used in cckext:               6352469 (10 integral passes)



 **********************************************************************************************************************************
 DATASETS  * FILE   NREC   LENGTH (MB)   RECORD NAMES
              1      20      269.66       500      610      700      900      950      970     1000      129      960     1100   
                                          VAR    BASINP    GEOM    SYMINP    ZMAT    AOBASIS   BASIS     P2S    ABASIS      S 
                                         1400     1410     1200     1210     1080     1600     1650     1700      960(1)  1380   
                                           T        V       H0       H01     AOSYM     SMH    MOLCAS    OPER    ABASIS    JKOP   

              2       5        1.55       700     1000     2100     7360     7350   
                                         GEOM     BASIS     RHF    F12ABS    EF12   

 PROGRAMS   *        TOTAL   CCSD(T)        HF       INT
 CPU TIMES  *       114.43    102.51      3.67      8.15
 REAL TIME  *       120.81 SEC
 DISK USED  *         3.35 GB      
 SF USED    *         1.53 GB      
 GA USED    *         2.40 MB       (max)       0.00 MB       (current)
 **********************************************************************************************************************************

     CCSD(T)-F12        HF-SCF  
   -264.74982068   -263.75342104
 **********************************************************************************************************************************
 Variable memory released
