
 Primary working directories    : /scratch/kee
 Secondary working directories  : /scratch/kee
 Wavefunction directory         : /home/kee/wfu/
 Main file repository           : /scratch/kee/

 ARCHNAME  : Linux/x86_64
 FC        : /opt/intel/composer_xe_2015.0.090/bin/intel64/ifort
 FCVERSION : 15.0.0
 BLASLIB   : -L/opt/intel/mkl/lib/intel64 -lmkl_intel_ilp64 -lmkl_sequential -lmkl_core
 id        : emory

 Nodes     nprocs
 node22       3
 Number of processes for MPI-2 version of Molpro:   nprocs(total)=    4   nprocs(compute)=    3   nprocs(helper)=    1
 ga_uses_ma=false, calling ma_init with nominal heap.
 GA-space will be limited to   8.0 MW (determined by -G option)

 Using customized tuning parameters: mindgm=7; mindgv=32; mindgc=1; mindgr=1; noblas=0; mincuda=1000; minvec=7
 default implementation of scratch files=sf  

 ***,co2h2o
 memory,100,m
 basis avtz
 geomtype = xyz
 geometry = {
 6
    -264.76489694
 O     0.82869278    1.16169550    0.00000000
 O     0.82658011   -1.16233555    0.00000000
 O    -1.94123460    0.00077872    0.00000000
 H    -2.52486761    0.76137337    0.00000000
 H    -2.52459950   -0.76002320    0.00000000
 C     0.80876519   -0.00029961    0.00000000
 }
 hf
 ccsd(t)-f12
 ---

 Variables initialized (665), CPU time= 0.01 sec
 Commands  initialized (462), CPU time= 0.01 sec, 486 directives.
 Default parameters read. Elapsed time= 0.05 sec

 Checking input...
 Passed
1


                                         ***  PROGRAM SYSTEM MOLPRO  ***
                         Copyright, University College Cardiff Consultants Limited, 2008

                                    Version 2010.1 linked 9 Dec 2014 15:06:28 


 **********************************************************************************************************************************
 LABEL *   co2h2o                                                                        
 Linux-2.6.32-504.el6.x86_64/node22(x86_64) 64 bit mpp version                           DATE: 12-Dec-16          TIME: 17:58:14  
 **********************************************************************************************************************************

 Patch level:      19
 **********************************************************************************************************************************

 Variable memory set to  100000000 words,  buffer space   230000 words

 SETTING BASIS          =    AVTZ
 SETTING GEOMTYPE       =    XYZ

Geometry recognized as XYZ



 Recomputing integrals since basis changed


 Using spherical harmonics

 Library entry O      S aug-cc-pVTZ          selected for orbital group  1
 Library entry O      P aug-cc-pVTZ          selected for orbital group  1
 Library entry O      D aug-cc-pVTZ          selected for orbital group  1
 Library entry O      F aug-cc-pVTZ          selected for orbital group  1
 Library entry H      S aug-cc-pVTZ          selected for orbital group  2
 Library entry H      P aug-cc-pVTZ          selected for orbital group  2
 Library entry H      D aug-cc-pVTZ          selected for orbital group  2
 Library entry C      S aug-cc-pVTZ          selected for orbital group  3
 Library entry C      P aug-cc-pVTZ          selected for orbital group  3
 Library entry C      D aug-cc-pVTZ          selected for orbital group  3
 Library entry C      F aug-cc-pVTZ          selected for orbital group  3

1PROGRAM * SEWARD (Integral evaluation for generally contracted gaussian basis sets)     Author: Roland Lindh, 1990

 Geometry written to block  1 of record 700


 Point group  Cs  



 ATOMIC COORDINATES

 NR  ATOM    CHARGE       X              Y              Z

   1  O       8.00    1.566002401    2.195286343    0.000000000
   2  O       8.00    1.562010034   -2.196495862    0.000000000
   3  O       8.00   -3.668401751    0.001471568    0.000000000
   4  H       1.00   -4.771308301    1.438787153    0.000000000
   5  H       1.00   -4.770801647   -1.436235702    0.000000000
   6  C       6.00    1.528344714   -0.000566181    0.000000000

 Bond lengths in Bohr (Angstrom)

 1-6  2.196175405  2-6  2.196187724  3-4  1.811706088  3-5  1.811708509
     (1.162165971)     (1.162172490)     (0.958713571)     (0.958714852)

 Bond angles

  1-6-2  178.13918425   4-3-5  105.01947441

 NUCLEAR CHARGE:                   32
 NUMBER OF PRIMITIVE AOS:         322
 NUMBER OF SYMMETRY AOS:          282
 NUMBER OF CONTRACTIONS:          230   ( 152A'  +  78A"  )
 NUMBER OF CORE ORBITALS:           4   (   4A'  +   0A"  )
 NUMBER OF VALENCE ORBITALS:       18   (  14A'  +   4A"  )


 NUCLEAR REPULSION ENERGY  105.81352801


 Eigenvalues of metric

         1 0.240E-03 0.265E-03 0.312E-03 0.324E-03 0.684E-03 0.802E-03 0.875E-03 0.146E-02
         2 0.304E-02 0.346E-02 0.518E-02 0.120E-01 0.128E-01 0.260E-01 0.291E-01 0.293E-01


 Contracted 2-electron integrals neglected if value below      1.0D-11
 AO integral compression algorithm  1   Integral accuracy      1.0D-11

     742.654 MB (compressed) written to integral file ( 44.7%)

     Node minimum: 239.862 MB, node maximum: 256.377 MB


 NUMBER OF SORTED TWO-ELECTRON INTEGRALS:   59950380.     BUFFER LENGTH:  32768
 NUMBER OF SEGMENTS:   4  SEGMENT LENGTH:   15995235      RECORD LENGTH: 524288

 Memory used in sort:      16.55 MW

 SORT1 READ   207531521. AND WROTE    55193959. INTEGRALS IN    160 RECORDS. CPU TIME:     3.22 SEC, REAL TIME:     3.79 SEC
 SORT2 READ   166110384. AND WROTE   179836431. INTEGRALS IN   2934 RECORDS. CPU TIME:     1.06 SEC, REAL TIME:     1.52 SEC

 Node minimum:    59940574.  Node maximum:    59950380. integrals

 OPERATOR DM      FOR CENTER  0  COORDINATES:    0.000000    0.000000    0.000000


 **********************************************************************************************************************************
 DATASETS  * FILE   NREC   LENGTH (MB)   RECORD NAMES
              1      18        3.74       500      610      700      900      950      970     1000      129      960     1100   
                                          VAR    BASINP    GEOM    SYMINP    ZMAT    AOBASIS   BASIS     P2S    ABASIS      S 
                                         1400     1410     1200     1210     1080     1600     1650     1700   
                                           T        V       H0       H01     AOSYM     SMH    MOLCAS    OPER   

 PROGRAMS   *        TOTAL       INT
 CPU TIMES  *         9.17      9.08
 REAL TIME  *        10.88 SEC
 DISK USED  *         2.71 GB      
 GA USED    *         0.00 MB       (max)       0.00 MB       (current)
 **********************************************************************************************************************************

1PROGRAM * RHF-SCF (CLOSED SHELL)       Authors: W. Meyer, H.-J. Werner


 NUMBER OF ELECTRONS:      16+   16-
 CONVERGENCE THRESHOLDS:    1.00E-05 (Density)    1.00E-07 (Energy)
 MAX. NUMBER OF ITERATIONS:       60
 INTERPOLATION TYPE:            DIIS
 INTERPOLATION STEPS:              2 (START)      1 (STEP)
 LEVEL SHIFTS:                  0.00 (CLOSED)  0.00 (OPEN) 



 Orbital guess generated from atomic densities. Full valence occupancy:   18   4

 Molecular orbital dump at record        2100.2

 Initial alpha occupancy:  13   3
 Initial beta  occupancy:  13   3
 Wave function symmetry:    1

 ITERATION    DDIFF          GRAD             ENERGY        2-EL.EN.            DIPOLE MOMENTS         DIIS
    1      0.000D+00      0.000D+00      -263.66949358    408.042766   -1.22655   -0.00009    0.00000    0
    2      0.000D+00      0.614D-02      -263.73271058    403.305912   -0.88624   -0.00003    0.00000    1
    3      0.989D-02      0.408D-02      -263.77193327    405.763956   -0.94670   -0.00002    0.00000    2
    4      0.399D-02      0.407D-03      -263.77243919    405.589870   -0.94518   -0.00003    0.00000    3
    5      0.492D-03      0.121D-03      -263.77249831    405.572445   -0.94014   -0.00003    0.00000    4
    6      0.185D-03      0.495D-04      -263.77250607    405.590606   -0.94077   -0.00003    0.00000    5
    7      0.618D-04      0.112D-04      -263.77250680    405.582056   -0.94040   -0.00003    0.00000    6
    8      0.200D-04      0.250D-05      -263.77250684    405.583490   -0.94044   -0.00003    0.00000    7
    9      0.522D-05      0.836D-06      -263.77250685    405.583232   -0.94042   -0.00003    0.00000    0

 Final occupancy:  13   3

 !RHF STATE 1.1 Energy               -263.772506845224
 Nuclear energy                       105.81352801
 One-electron energy                 -572.37765098
 Two-electron energy                  202.79161612
 Virial quotient                       -1.00177437
 !RHF STATE 1.1 Dipole moment          -0.94042159    -0.00002785     0.00000000
 Dipole moment /Debye                  -2.39015671    -0.00007077     0.00000000

 Orbital energies:

         1.1          2.1          3.1          4.1          5.1          6.1          7.1          8.1          9.1         10.1
    -20.629742   -20.629696   -20.579140   -11.440726    -1.508175    -1.455327    -1.365829    -0.780027    -0.730762    -0.722447

        11.1         12.1         13.1         14.1         15.1
     -0.696533    -0.595895    -0.523458     0.025163     0.047637

         1.2          2.2          3.2          4.2          5.2
     -0.692772    -0.523772    -0.522909     0.082849     0.168727


 **********************************************************************************************************************************
 DATASETS  * FILE   NREC   LENGTH (MB)   RECORD NAMES
              1      18        3.76       500      610      700      900      950      970     1000      129      960     1100   
                                          VAR    BASINP    GEOM    SYMINP    ZMAT    AOBASIS   BASIS     P2S    ABASIS      S 
                                         1400     1410     1200     1210     1080     1600     1650     1700   
                                           T        V       H0       H01     AOSYM     SMH    MOLCAS    OPER   

              2       3        0.96       700     1000     2100   
                                         GEOM     BASIS     RHF  

 PROGRAMS   *        TOTAL        HF       INT
 CPU TIMES  *        13.40      4.23      9.08
 REAL TIME  *        15.59 SEC
 DISK USED  *         2.74 GB      
 SF USED    *         0.12 MB      
 GA USED    *         0.00 MB       (max)       0.00 MB       (current)
 **********************************************************************************************************************************


1PROGRAM * CCSD (Closed-shell coupled cluster)     Authors: C. Hampel, H.-J. Werner, 1991, M. Deegan, P.J. Knowles, 1992

                                  CCSD-F12 implementation by  H.-J. Werner, 2007

                   Density fitting integral evaluation by F.R. Manby, 2003,2007, G. Knizia, 2010

 Basis set CC-PVTZ/JKFIT generated.      Number of basis functions:   376 
 Basis set AUG-CC-PVTZ/MP2FIT generated. Number of basis functions:   516 

 Convergence thresholds:  THRVAR = 1.00D-08  THRDEN = 1.00D-06

 CCSD(T)     terms to be evaluated (factor= 1.000)


 Number of core orbitals:           4 (   4   0 )
 Number of closed-shell orbitals:  12 (   9   3 )
 Number of external orbitals:     214 ( 139  75 )

 Molecular orbitals read from record     2100.2  Type=RHF/CANONICAL (state 1.1)

 MP2-F12 correlation treatment (H.-J. Werner, 2006)
 --------------------------------------------------

 Using MP2-F12 with ansatz 3C(FIX)

 Using projected zeroth-order Hamiltonian (+Z)

 FOCKRIB=T FOCKRIC=T FOCKRIP=T CABSP=T CABSA=T CABSK=T CABSF=T GBC=F EBC=F DMAT=T NOFIK=T NOPAO=1 SOLVE=-1  USEPAO=0
 EXCH_A= T EXCH_B= F EXCH_C= F EXCH_P= F
 
 Geminal basis:    OPTFULL  GEM_TYPE=SLATER  BETA=1.0  NGEM=6

 Optimizing Gaussian exponents for each gem_beta

 Geminal optimization for beta= 1.0000
 Weight function:   m=0, omega= 1.4646

 Augmented Hessian optimization of geminal fit. Trust ratio= 0.40000
 Convergence reached after   2 iterations. Final gradient= 8.24D-16, Step= 4.32D-06, Delta= 1.28D-09
 
 Alpha:                 0.19532     0.81920     2.85917     9.50073    35.69989   197.79328
 Coeff:                 0.27070     0.30552     0.18297     0.10986     0.06810     0.04224
 

 Symmetry turned off. Reference energy:       -263.772506845224

 All pairs explicitly correlated. Number of r12-pairs:           78
 
 AO(A)-basis ORBITAL           loaded. Number of functions:     230
 RI(R)-basis CC-PVTZ/JKFIT     loaded. Number of functions:     376
 DF-basis CC-PVTZ/JKFIT        loaded. Number of functions:     376

 Screening thresholds:   THRAO=  1.00D-10  THRMO=  1.00D-09  THRPROD=  1.00D-09
                         THRSW=  1.00D-05  THROV=  1.00D-12  THRF12=   1.00D-08

 CPU time for Fock operators                      0.93 sec
 
 Construction of ABS:
 Smallest eigenvalue of S          2.48E-04  (threshold= 1.00E-08)
 Ratio eigmin/eigmax               1.77E-06  (threshold= 1.00E-09)
 Smallest eigenvalue of S kept     2.48E-04  (threshold= 2.48E-04, 0 functions deleted, 376 kept)
 
 Construction of CABS:
 Smallest eigenvalue of S          2.25E-08  (threshold= 1.00E-08)
 Ratio eigmin/eigmax               2.25E-08  (threshold= 1.00E-09)
 Smallest eigenvalue of S kept     2.25E-08  (threshold= 2.25E-08, 0 functions deleted, 376 kept)
 
 CPU time for CABS singles                        0.15 sec

 CABS-singles contribution of  -0.01591711 patched into reference energy.
 New reference energy        -263.78842395
 
 AO(A)-basis ORBITAL           loaded. Number of functions:     230
 RI(R)-basis CC-PVTZ/JKFIT     loaded. Number of functions:     376
 DF-basis AUG-CC-PVTZ/MP2FIT   loaded. Number of functions:     516

 Screening thresholds:   THRAO=  1.00D-10  THRMO=  1.00D-09  THRPROD=  1.00D-09
                         THRSW=  1.00D-05  THROV=  1.00D-12  THRF12=   1.00D-08

 CPU time for 3-index integral evaluation         2.87 sec
 CPU time for first  half transformation          0.29 sec (10468.8 MFLOP/sec)
 CPU time for second half transformation          0.01 sec (11137.2 MFLOP/sec)
 CPU time for sorting                             0.17 sec
 CPU time for fitting                             0.04 sec (34826.3 MFLOP/sec)
 CPU time for tilde quantities                    0.05 sec (36977.6 MFLOP/sec)
 CPU time for assembly                            0.75 sec (31483.2 MFLOP/sec)
 CPU time for tranop_f12                          0.86 sec (35570.4 MFLOP/sec)
 CPU time for f12 integrals (total)               7.04 sec
 F12-matrices built in  3 passes.
 F12-matrices built in  3 passes.
 F12-matrices built in  3 passes.
 F12-matrices built in  3 passes.
 FC-matrix built in  3 passes.
 CPU time for f12 matrices (total)                0.51 sec

 Diagonal F12 approximation with fixed coefficients:  TSING= 0.500,  TTRIP= 0.250 (scaled by -1/beta)

 DF-MP2-F12 energy corrections:
 ------------------------------
 Approx.                                    Singlet             Triplet             Total
 DF-MP2-F12/3*C(DX,FIX)                -0.097361538039     -0.016995729709     -0.114357267748
 DF-MP2-F12/3*C(FIX)                   -0.079784812826     -0.013480477833     -0.093265290659
 DF-MP2-F12/3C(FIX)                    -0.080159447903     -0.013518710795     -0.093678158697

 DF-MP2-F12 correlation energies:
 --------------------------------
 Approx.                                    Singlet             Triplet             Ecorr            Total Energy
 DF-MP2                                -0.537814529135     -0.344532279478     -0.882346808613   -264.670770760452
 DF-MP2-F12/3*C(DX,FIX)                -0.635176067174     -0.361528009187     -0.996704076361   -264.785128028199
 DF-MP2-F12/3*C(FIX)                   -0.617599341961     -0.358012757311     -0.975612099272   -264.764036051111
 DF-MP2-F12/3C(FIX)                    -0.617973977038     -0.358050990273     -0.976024967311   -264.764448919149

 SCS-DF-MP2 energies (F_SING= 1.20000  F_TRIP= 0.62222  F_PARALLEL= 0.33333):
 ----------------------------------------------------------------------------
 SCS-DF-MP2                            -0.859753075526   -264.648177027365
 SCS-DF-MP2-F12/3*C(DX,FIX)            -0.987162041880   -264.775585993719
 SCS-DF-MP2-F12/3*C(FIX)               -0.963882703791   -264.752306655630
 SCS-DF-MP2-F12/3C(FIX)                -0.964356055282   -264.752780007121

 Symmetry restored.
 Symmetry transformation completed.

 Number of N-1 electron functions:              12
 Number of N-2 electron functions:              78
 Number of singly external CSFs:              1476
 Number of doubly external CSFs:           1686804
 Total number of CSFs:                     1688281

 Pair and operator lists are different

 Length of J-op  integral file:             466.42 MB
 Length of K-op  integral file:             526.62 MB
 Length of 3-ext integral record:             0.00 MB

 Memory could be reduced to 76.61 Mwords without degradation in triples

 Integral transformation finished. Total CPU:   4.73 sec, npass=  1  Memory used:  24.61 MW

 Reference energy:                   -263.78842395

 Adding F12 terms to K(Cij), methodcc=6,  factor=1.0

 ITER.      SQ.NORM     CORR.ENERGY   TOTAL ENERGY   ENERGY CHANGE        DEN1      VAR(S)    VAR(P)  DIIS     TIME
   1      1.20204141    -0.86423307  -264.65265702     0.01812702     0.04660889  0.72D-02  0.55D-02  1  1    16.58
   2      1.21631952    -0.86008176  -264.64850571     0.00415131    -0.02010376  0.89D-04  0.58D-03  2  2    21.32
   3      1.22168937    -0.86019696  -264.64862091    -0.00011520    -0.00235735  0.13D-03  0.32D-04  3  3    24.27
   4      1.22450198    -0.86006755  -264.64849150     0.00012942    -0.00141258  0.78D-05  0.40D-05  4  4    27.27
   5      1.22553316    -0.86003060  -264.64845456     0.00003694    -0.00036422  0.59D-06  0.28D-06  5  5    30.35
   6      1.22569546    -0.86000364  -264.64842759     0.00002696    -0.00000766  0.43D-07  0.24D-07  6  6    33.44
   7      1.22572667    -0.86000083  -264.64842478     0.00000281    -0.00000659  0.34D-08  0.39D-08  6  2    36.51
   8      1.22572682    -0.86000057  -264.64842452     0.00000026     0.00000211  0.42D-09  0.30D-09  6  1    39.51
   9      1.22572734    -0.86000063  -264.64842459    -0.00000006     0.00000067  0.41D-10  0.25D-10  6  4    42.51

 Norm of t1 vector:      0.10639344      S-energy:     0.00000003      T1 diagnostic:  0.01535657
                                                                       D1 diagnostic:  0.04580322

 Adding energy correction from Wij-K(Fij), methodcc=6  factor=1.0
 
  CCSD correlation energy              -0.860000633431
  MP2-F12 correction (uncoupled)       -0.092505604171
  C*T doubles correction               -0.001475532316
  f12b correction                       0.015415783930


 Total CPU time for triples:     78.82 sec


 RESULTS
 =======

  Reference energy                   -263.772506845224
  F12 singles correction               -0.015917106615

 F12 singles corrections added to reference energy

  New reference energy               -263.788423951839

  F12a singlet correction              -0.080352217614
  F12a triplet correction              -0.013628918872
  F12a total correction                -0.093981136487

 F12a corrections for ansatz F12/3C(FIX) added to CCSD energy
 
  CCSD-F12a singlet pair energy        -0.641695901909
  CCSD-F12a triplet pair energy        -0.312285898850
  CCSD-F12a correlation energy         -0.953981769917

  Triples (T) contribution             -0.037906895491
  Total correlation energy             -0.991888665408

  CCSD-F12a total energy             -264.742405721756
  CCSD[T]-F12a energy                -264.782852599812
  CCSD-T-F12a energy                 -264.779383208950
 !CCSD(T)-F12a total energy          -264.780312617247

 F12b corrections for ansatz F12/3C(FIX) added to CCSD(T)-F12a energy

  CCSD-F12b singlet pair energy        -0.627513345116
  CCSD-F12b triplet pair energy        -0.311052671712
  CCSD-F12b correlation energy         -0.938565985987

  Triples (T) contribution             -0.037906895491
  Total correlation energy             -0.976472881478

  CCSD-F12b total energy             -264.726989937826
  CCSD[T]-F12b energy                -264.767436815882
  CCSD-T-F12b energy                 -264.763967425020
 !CCSD(T)-F12b total energy          -264.764896833316

 Timing summary (sec):

 STEP                 CPU(USER)    SYS     CPU(TOT)    WALL
 Transformation          4.76      0.54      5.30      5.30
 CCSD iterations        28.74      1.76     30.50     30.49
 Triples                78.82      1.44     80.26     80.22
 MP2-F12                 9.03      1.08     10.11     10.10
 F12b energy             1.98      0.06      2.04      2.04

 Program statistics:

 Available memory in ccsd:                99998934
 Min. memory needed in ccsd:               4458306
 Max. memory used in ccsd:                 5958390
 Max. memory used in cckext:               6352469 (10 integral passes)



 **********************************************************************************************************************************
 DATASETS  * FILE   NREC   LENGTH (MB)   RECORD NAMES
              1      20      269.66       500      610      700      900      950      970     1000      129      960     1100   
                                          VAR    BASINP    GEOM    SYMINP    ZMAT    AOBASIS   BASIS     P2S    ABASIS      S 
                                         1400     1410     1200     1210     1080     1600     1650     1700      960(1)  1380   
                                           T        V       H0       H01     AOSYM     SMH    MOLCAS    OPER    ABASIS    JKOP   

              2       5        1.55       700     1000     2100     7360     7350   
                                         GEOM     BASIS     RHF    F12ABS    EF12   

 PROGRAMS   *        TOTAL   CCSD(T)        HF       INT
 CPU TIMES  *       136.79    123.39      4.23      9.08
 REAL TIME  *       144.03 SEC
 DISK USED  *         3.18 GB      
 SF USED    *         1.53 GB      
 GA USED    *         2.40 MB       (max)       0.00 MB       (current)
 **********************************************************************************************************************************

     CCSD(T)-F12        HF-SCF  
   -264.76489683   -263.77250685
 **********************************************************************************************************************************
 Variable memory released
