
 Primary working directories    : /scratch/kee
 Secondary working directories  : /scratch/kee
 Wavefunction directory         : /home/kee/wfu/
 Main file repository           : /scratch/kee/

 ARCHNAME  : Linux/x86_64
 FC        : /opt/intel/composer_xe_2015.0.090/bin/intel64/ifort
 FCVERSION : 15.0.0
 BLASLIB   : -L/opt/intel/mkl/lib/intel64 -lmkl_intel_ilp64 -lmkl_sequential -lmkl_core
 id        : emory

 Nodes     nprocs
 node22       3
 Number of processes for MPI-2 version of Molpro:   nprocs(total)=    4   nprocs(compute)=    3   nprocs(helper)=    1
 ga_uses_ma=false, calling ma_init with nominal heap.
 GA-space will be limited to   8.0 MW (determined by -G option)

 Using customized tuning parameters: mindgm=7; mindgv=32; mindgc=1; mindgr=1; noblas=0; mincuda=1000; minvec=7
 default implementation of scratch files=sf  

 ***,co2h2o
 memory,100,m
 basis avtz
 geomtype = xyz
 geometry = {
 6
    -264.76489694
 O     0.82869278    1.16169550    0.00000000
 O     0.82658011   -1.16233555    0.00000000
 O    -2.69123454    0.00107281    0.00000000
 H    -3.27486755    0.76166746    0.00000000
 H    -3.27459944   -0.75972911    0.00000000
 C     0.80876519   -0.00029961    0.00000000
 }
 hf
 ccsd(t)-f12
 ---

 Variables initialized (665), CPU time= 0.00 sec
 Commands  initialized (462), CPU time= 0.01 sec, 486 directives.
 Default parameters read. Elapsed time= 0.03 sec

 Checking input...
 Passed
1


                                         ***  PROGRAM SYSTEM MOLPRO  ***
                         Copyright, University College Cardiff Consultants Limited, 2008

                                    Version 2010.1 linked 9 Dec 2014 15:06:28 


 **********************************************************************************************************************************
 LABEL *   co2h2o                                                                        
 Linux-2.6.32-504.el6.x86_64/node22(x86_64) 64 bit mpp version                           DATE: 12-Dec-16          TIME: 18:33:14  
 **********************************************************************************************************************************

 Patch level:      19
 **********************************************************************************************************************************

 Variable memory set to  100000000 words,  buffer space   230000 words

 SETTING BASIS          =    AVTZ
 SETTING GEOMTYPE       =    XYZ

Geometry recognized as XYZ



 Recomputing integrals since basis changed


 Using spherical harmonics

 Library entry O      S aug-cc-pVTZ          selected for orbital group  1
 Library entry O      P aug-cc-pVTZ          selected for orbital group  1
 Library entry O      D aug-cc-pVTZ          selected for orbital group  1
 Library entry O      F aug-cc-pVTZ          selected for orbital group  1
 Library entry H      S aug-cc-pVTZ          selected for orbital group  2
 Library entry H      P aug-cc-pVTZ          selected for orbital group  2
 Library entry H      D aug-cc-pVTZ          selected for orbital group  2
 Library entry C      S aug-cc-pVTZ          selected for orbital group  3
 Library entry C      P aug-cc-pVTZ          selected for orbital group  3
 Library entry C      D aug-cc-pVTZ          selected for orbital group  3
 Library entry C      F aug-cc-pVTZ          selected for orbital group  3

1PROGRAM * SEWARD (Integral evaluation for generally contracted gaussian basis sets)     Author: Roland Lindh, 1990

 Geometry written to block  1 of record 700


 Point group  Cs  



 ATOMIC COORDINATES

 NR  ATOM    CHARGE       X              Y              Z

   1  O       8.00    1.566002401    2.195286343    0.000000000
   2  O       8.00    1.562010034   -2.196495862    0.000000000
   3  O       8.00   -5.085696236    0.002027317    0.000000000
   4  H       1.00   -6.188602786    1.439342903    0.000000000
   5  H       1.00   -6.188096132   -1.435679952    0.000000000
   6  C       6.00    1.528344714   -0.000566181    0.000000000

 Bond lengths in Bohr (Angstrom)

 1-6  2.196175405  2-6  2.196187724  3-4  1.811706088  3-5  1.811708509
     (1.162165971)     (1.162172490)     (0.958713571)     (0.958714852)

 Bond angles

  1-6-2  178.13918425   4-3-5  105.01947441

 NUCLEAR CHARGE:                   32
 NUMBER OF PRIMITIVE AOS:         322
 NUMBER OF SYMMETRY AOS:          282
 NUMBER OF CONTRACTIONS:          230   ( 152A'  +  78A"  )
 NUMBER OF CORE ORBITALS:           4   (   4A'  +   0A"  )
 NUMBER OF VALENCE ORBITALS:       18   (  14A'  +   4A"  )


 NUCLEAR REPULSION ENERGY   98.45129011


 Eigenvalues of metric

         1 0.305E-03 0.332E-03 0.359E-03 0.364E-03 0.876E-03 0.888E-03 0.124E-02 0.160E-02
         2 0.314E-02 0.346E-02 0.552E-02 0.124E-01 0.133E-01 0.275E-01 0.295E-01 0.307E-01


 Contracted 2-electron integrals neglected if value below      1.0D-11
 AO integral compression algorithm  1   Integral accuracy      1.0D-11

     642.253 MB (compressed) written to integral file ( 38.7%)

     Node minimum: 203.686 MB, node maximum: 219.677 MB


 NUMBER OF SORTED TWO-ELECTRON INTEGRALS:   59950380.     BUFFER LENGTH:  32768
 NUMBER OF SEGMENTS:   4  SEGMENT LENGTH:   15995235      RECORD LENGTH: 524288

 Memory used in sort:      16.55 MW

 SORT1 READ   207531521. AND WROTE    49748501. INTEGRALS IN    143 RECORDS. CPU TIME:     3.22 SEC, REAL TIME:     3.74 SEC
 SORT2 READ   149919743. AND WROTE   179836431. INTEGRALS IN   2331 RECORDS. CPU TIME:     1.08 SEC, REAL TIME:     1.51 SEC

 Node minimum:    59940574.  Node maximum:    59950380. integrals

 OPERATOR DM      FOR CENTER  0  COORDINATES:    0.000000    0.000000    0.000000


 **********************************************************************************************************************************
 DATASETS  * FILE   NREC   LENGTH (MB)   RECORD NAMES
              1      18        3.74       500      610      700      900      950      970     1000      129      960     1100   
                                          VAR    BASINP    GEOM    SYMINP    ZMAT    AOBASIS   BASIS     P2S    ABASIS      S 
                                         1400     1410     1200     1210     1080     1600     1650     1700   
                                           T        V       H0       H01     AOSYM     SMH    MOLCAS    OPER   

 PROGRAMS   *        TOTAL       INT
 CPU TIMES  *         8.77      8.69
 REAL TIME  *        10.32 SEC
 DISK USED  *         2.42 GB      
 GA USED    *         0.00 MB       (max)       0.00 MB       (current)
 **********************************************************************************************************************************

1PROGRAM * RHF-SCF (CLOSED SHELL)       Authors: W. Meyer, H.-J. Werner


 NUMBER OF ELECTRONS:      16+   16-
 CONVERGENCE THRESHOLDS:    1.00E-05 (Density)    1.00E-07 (Energy)
 MAX. NUMBER OF ITERATIONS:       60
 INTERPOLATION TYPE:            DIIS
 INTERPOLATION STEPS:              2 (START)      1 (STEP)
 LEVEL SHIFTS:                  0.00 (CLOSED)  0.00 (OPEN) 



 Orbital guess generated from atomic densities. Full valence occupancy:   18   4

 Molecular orbital dump at record        2100.2

 Initial alpha occupancy:  13   3
 Initial beta  occupancy:  13   3
 Wave function symmetry:    1

 ITERATION    DDIFF          GRAD             ENERGY        2-EL.EN.            DIPOLE MOMENTS         DIIS
    1      0.000D+00      0.000D+00      -263.66550768    393.039686   -1.18933   -0.00012    0.00000    0
    2      0.000D+00      0.622D-02      -263.72980310    388.308123   -0.78191   -0.00007    0.00000    1
    3      0.999D-02      0.419D-02      -263.77125158    390.852752   -0.87573   -0.00006    0.00000    2
    4      0.408D-02      0.403D-03      -263.77174779    390.654563   -0.87782   -0.00007    0.00000    3
    5      0.488D-03      0.118D-03      -263.77180601    390.648911   -0.87323   -0.00006    0.00000    4
    6      0.182D-03      0.481D-04      -263.77181341    390.665061   -0.87403   -0.00007    0.00000    5
    7      0.611D-04      0.114D-04      -263.77181413    390.656483   -0.87364   -0.00007    0.00000    6
    8      0.198D-04      0.253D-05      -263.77181418    390.657826   -0.87366   -0.00007    0.00000    7
    9      0.536D-05      0.846D-06      -263.77181418    390.657605   -0.87364   -0.00007    0.00000    0

 Final occupancy:  13   3

 !RHF STATE 1.1 Energy               -263.771814182545
 Nuclear energy                        98.45129011
 One-electron energy                 -557.55190691
 Two-electron energy                  195.32880261
 Virial quotient                       -1.00184886
 !RHF STATE 1.1 Dipole moment          -0.87363631    -0.00006526     0.00000000
 Dipole moment /Debye                  -2.22041657    -0.00016587     0.00000000

 Orbital energies:

         1.1          2.1          3.1          4.1          5.1          6.1          7.1          8.1          9.1         10.1
    -20.638311   -20.638266   -20.573899   -11.447800    -1.516012    -1.463068    -1.359262    -0.787042    -0.729507    -0.724548

        11.1         12.1         13.1         14.1         15.1
     -0.699830    -0.591664    -0.530163     0.026776     0.047610

         1.2          2.2          3.2          4.2          5.2
     -0.700332    -0.530310    -0.517138     0.081959     0.166857


 **********************************************************************************************************************************
 DATASETS  * FILE   NREC   LENGTH (MB)   RECORD NAMES
              1      18        3.76       500      610      700      900      950      970     1000      129      960     1100   
                                          VAR    BASINP    GEOM    SYMINP    ZMAT    AOBASIS   BASIS     P2S    ABASIS      S 
                                         1400     1410     1200     1210     1080     1600     1650     1700   
                                           T        V       H0       H01     AOSYM     SMH    MOLCAS    OPER   

              2       3        0.96       700     1000     2100   
                                         GEOM     BASIS     RHF  

 PROGRAMS   *        TOTAL        HF       INT
 CPU TIMES  *        13.16      4.40      8.69
 REAL TIME  *        15.00 SEC
 DISK USED  *         2.44 GB      
 SF USED    *         0.12 MB      
 GA USED    *         0.00 MB       (max)       0.00 MB       (current)
 **********************************************************************************************************************************


1PROGRAM * CCSD (Closed-shell coupled cluster)     Authors: C. Hampel, H.-J. Werner, 1991, M. Deegan, P.J. Knowles, 1992

                                  CCSD-F12 implementation by  H.-J. Werner, 2007

                   Density fitting integral evaluation by F.R. Manby, 2003,2007, G. Knizia, 2010

 Basis set CC-PVTZ/JKFIT generated.      Number of basis functions:   376 
 Basis set AUG-CC-PVTZ/MP2FIT generated. Number of basis functions:   516 

 Convergence thresholds:  THRVAR = 1.00D-08  THRDEN = 1.00D-06

 CCSD(T)     terms to be evaluated (factor= 1.000)


 Number of core orbitals:           4 (   4   0 )
 Number of closed-shell orbitals:  12 (   9   3 )
 Number of external orbitals:     214 ( 139  75 )

 Molecular orbitals read from record     2100.2  Type=RHF/CANONICAL (state 1.1)

 MP2-F12 correlation treatment (H.-J. Werner, 2006)
 --------------------------------------------------

 Using MP2-F12 with ansatz 3C(FIX)

 Using projected zeroth-order Hamiltonian (+Z)

 FOCKRIB=T FOCKRIC=T FOCKRIP=T CABSP=T CABSA=T CABSK=T CABSF=T GBC=F EBC=F DMAT=T NOFIK=T NOPAO=1 SOLVE=-1  USEPAO=0
 EXCH_A= T EXCH_B= F EXCH_C= F EXCH_P= F
 
 Geminal basis:    OPTFULL  GEM_TYPE=SLATER  BETA=1.0  NGEM=6

 Optimizing Gaussian exponents for each gem_beta

 Geminal optimization for beta= 1.0000
 Weight function:   m=0, omega= 1.4646

 Augmented Hessian optimization of geminal fit. Trust ratio= 0.40000
 Convergence reached after   2 iterations. Final gradient= 8.24D-16, Step= 4.32D-06, Delta= 1.28D-09
 
 Alpha:                 0.19532     0.81920     2.85917     9.50073    35.69989   197.79328
 Coeff:                 0.27070     0.30552     0.18297     0.10986     0.06810     0.04224
 

 Symmetry turned off. Reference energy:       -263.771814182545

 All pairs explicitly correlated. Number of r12-pairs:           78
 
 AO(A)-basis ORBITAL           loaded. Number of functions:     230
 RI(R)-basis CC-PVTZ/JKFIT     loaded. Number of functions:     376
 DF-basis CC-PVTZ/JKFIT        loaded. Number of functions:     376

 Screening thresholds:   THRAO=  1.00D-10  THRMO=  1.00D-09  THRPROD=  1.00D-09
                         THRSW=  1.00D-05  THROV=  1.00D-12  THRF12=   1.00D-08

 CPU time for Fock operators                      0.95 sec
 
 Construction of ABS:
 Smallest eigenvalue of S          2.57E-04  (threshold= 1.00E-08)
 Ratio eigmin/eigmax               1.83E-06  (threshold= 1.00E-09)
 Smallest eigenvalue of S kept     2.57E-04  (threshold= 2.57E-04, 0 functions deleted, 376 kept)
 
 Construction of CABS:
 Smallest eigenvalue of S          2.28E-08  (threshold= 1.00E-08)
 Ratio eigmin/eigmax               2.28E-08  (threshold= 1.00E-09)
 Smallest eigenvalue of S kept     2.28E-08  (threshold= 2.28E-08, 0 functions deleted, 376 kept)
 
 CPU time for CABS singles                        0.16 sec

 CABS-singles contribution of  -0.01591933 patched into reference energy.
 New reference energy        -263.78773351
 
 AO(A)-basis ORBITAL           loaded. Number of functions:     230
 RI(R)-basis CC-PVTZ/JKFIT     loaded. Number of functions:     376
 DF-basis AUG-CC-PVTZ/MP2FIT   loaded. Number of functions:     516

 Screening thresholds:   THRAO=  1.00D-10  THRMO=  1.00D-09  THRPROD=  1.00D-09
                         THRSW=  1.00D-05  THROV=  1.00D-12  THRF12=   1.00D-08

 CPU time for 3-index integral evaluation         2.87 sec
 CPU time for first  half transformation          0.27 sec ( 9778.8 MFLOP/sec)
 CPU time for second half transformation          0.03 sec ( 3594.6 MFLOP/sec)
 CPU time for sorting                             0.17 sec
 CPU time for fitting                             0.05 sec (27861.0 MFLOP/sec)
 CPU time for tilde quantities                    0.07 sec (26412.6 MFLOP/sec)
 CPU time for assembly                            0.79 sec (29539.9 MFLOP/sec)
 CPU time for tranop_f12                          0.85 sec (35455.7 MFLOP/sec)
 CPU time for f12 integrals (total)               7.11 sec
 F12-matrices built in  3 passes.
 F12-matrices built in  3 passes.
 F12-matrices built in  3 passes.
 F12-matrices built in  3 passes.
 FC-matrix built in  3 passes.
 CPU time for f12 matrices (total)                0.48 sec

 Diagonal F12 approximation with fixed coefficients:  TSING= 0.500,  TTRIP= 0.250 (scaled by -1/beta)

 DF-MP2-F12 energy corrections:
 ------------------------------
 Approx.                                    Singlet             Triplet             Total
 DF-MP2-F12/3*C(DX,FIX)                -0.097379497098     -0.016937266579     -0.114316763677
 DF-MP2-F12/3*C(FIX)                   -0.079814856936     -0.013409323781     -0.093224180717
 DF-MP2-F12/3C(FIX)                    -0.080178771515     -0.013436936702     -0.093615708218

 DF-MP2-F12 correlation energies:
 --------------------------------
 Approx.                                    Singlet             Triplet             Ecorr            Total Energy
 DF-MP2                                -0.537694573787     -0.343397249506     -0.881091823293   -264.668825333495
 DF-MP2-F12/3*C(DX,FIX)                -0.635074070885     -0.360334516086     -0.995408586971   -264.783142097172
 DF-MP2-F12/3*C(FIX)                   -0.617509430723     -0.356806573287     -0.974316004011   -264.762049514212
 DF-MP2-F12/3C(FIX)                    -0.617873345303     -0.356834186208     -0.974707531511   -264.762441041712

 SCS-DF-MP2 energies (F_SING= 1.20000  F_TRIP= 0.62222  F_PARALLEL= 0.33333):
 ----------------------------------------------------------------------------
 SCS-DF-MP2                            -0.858902888237   -264.646636398438
 SCS-DF-MP2-F12/3*C(DX,FIX)            -0.986297028404   -264.774030538605
 SCS-DF-MP2-F12/3*C(FIX)               -0.963024295802   -264.750757806003
 SCS-DF-MP2-F12/3C(FIX)                -0.963478174671   -264.751211684872

 Symmetry restored.
 Symmetry transformation completed.

 Number of N-1 electron functions:              12
 Number of N-2 electron functions:              78
 Number of singly external CSFs:              1476
 Number of doubly external CSFs:           1686804
 Total number of CSFs:                     1688281

 Pair and operator lists are different

 Length of J-op  integral file:             466.42 MB
 Length of K-op  integral file:             526.62 MB
 Length of 3-ext integral record:             0.00 MB

 Memory could be reduced to 76.61 Mwords without degradation in triples

 Integral transformation finished. Total CPU:   3.99 sec, npass=  1  Memory used:  24.61 MW

 Reference energy:                   -263.78773351

 Adding F12 terms to K(Cij), methodcc=6,  factor=1.0

 ITER.      SQ.NORM     CORR.ENERGY   TOTAL ENERGY   ENERGY CHANGE        DEN1      VAR(S)    VAR(P)  DIIS     TIME
   1      1.20210635    -0.86305839  -264.65079190     0.01804884     0.04660316  0.72D-02  0.55D-02  1  1    15.82
   2      1.21640143    -0.85886757  -264.64660108     0.00419082    -0.02011761  0.87D-04  0.59D-03  2  2    18.68
   3      1.22176842    -0.85897155  -264.64670506    -0.00010398    -0.00236587  0.13D-03  0.32D-04  3  3    21.50
   4      1.22457460    -0.85884402  -264.64657753     0.00012753    -0.00141206  0.76D-05  0.41D-05  4  4    24.29
   5      1.22560421    -0.85880659  -264.64654010     0.00003743    -0.00036541  0.56D-06  0.28D-06  5  5    27.09
   6      1.22576610    -0.85877971  -264.64651322     0.00002688    -0.00000798  0.40D-07  0.24D-07  6  6    29.92
   7      1.22579558    -0.85877727  -264.64651079     0.00000243    -0.00000622  0.27D-08  0.40D-08  6  4    32.77
   8      1.22579597    -0.85877677  -264.64651028     0.00000051     0.00000190  0.40D-09  0.28D-09  6  1    35.58
   9      1.22579657    -0.85877683  -264.64651034    -0.00000007     0.00000057  0.29D-10  0.23D-10  6  2    38.39

 Norm of t1 vector:      0.10605589      S-energy:    -0.00000003      T1 diagnostic:  0.01530785
                                                                       D1 diagnostic:  0.04518749

 Adding energy correction from Wij-K(Fij), methodcc=6  factor=1.0
 
  CCSD correlation energy              -0.858776833119
  MP2-F12 correction (uncoupled)       -0.092458344243
  C*T doubles correction               -0.001472031202
  f12b correction                       0.015405721196


 Total CPU time for triples:     77.11 sec


 RESULTS
 =======

  Reference energy                   -263.771814182545
  F12 singles correction               -0.015919327656

 F12 singles corrections added to reference energy

  New reference energy               -263.787733510201

  F12a singlet correction              -0.080377065701
  F12a triplet correction              -0.013553309744
  F12a total correction                -0.093930375445

 F12a corrections for ansatz F12/3C(FIX) added to CCSD energy
 
  CCSD-F12a singlet pair energy        -0.641768561300
  CCSD-F12a triplet pair energy        -0.310938615949
  CCSD-F12a correlation energy         -0.952707208563

  Triples (T) contribution             -0.037701393997
  Total correlation energy             -0.990408602561

  CCSD-F12a total energy             -264.740440718765
  CCSD[T]-F12a energy                -264.780681004899
  CCSD-T-F12a energy                 -264.777208559702
 !CCSD(T)-F12a total energy          -264.778142112762

 F12b corrections for ansatz F12/3C(FIX) added to CCSD(T)-F12a energy

  CCSD-F12b singlet pair energy        -0.627588021033
  CCSD-F12b triplet pair energy        -0.309713435020
  CCSD-F12b correlation energy         -0.937301487368

  Triples (T) contribution             -0.037701393997
  Total correlation energy             -0.975002881365

  CCSD-F12b total energy             -264.725034997569
  CCSD[T]-F12b energy                -264.765275283703
  CCSD-T-F12b energy                 -264.761802838506
 !CCSD(T)-F12b total energy          -264.762736391566

 Timing summary (sec):

 STEP                 CPU(USER)    SYS     CPU(TOT)    WALL
 Transformation          4.03      0.57      4.60      4.60
 CCSD iterations        25.23      1.61     26.84     27.29
 Triples                77.11      1.83     78.94     78.91
 MP2-F12                 9.14      1.24     10.38     10.39
 F12b energy             1.84      0.04      1.88      1.88

 Program statistics:

 Available memory in ccsd:                99998934
 Min. memory needed in ccsd:               4458306
 Max. memory used in ccsd:                 5958390
 Max. memory used in cckext:               6352469 (10 integral passes)



 **********************************************************************************************************************************
 DATASETS  * FILE   NREC   LENGTH (MB)   RECORD NAMES
              1      20      269.66       500      610      700      900      950      970     1000      129      960     1100   
                                          VAR    BASINP    GEOM    SYMINP    ZMAT    AOBASIS   BASIS     P2S    ABASIS      S 
                                         1400     1410     1200     1210     1080     1600     1650     1700      960(1)  1380   
                                           T        V       H0       H01     AOSYM     SMH    MOLCAS    OPER    ABASIS    JKOP   

              2       5        1.55       700     1000     2100     7360     7350   
                                         GEOM     BASIS     RHF    F12ABS    EF12   

 PROGRAMS   *        TOTAL   CCSD(T)        HF       INT
 CPU TIMES  *       130.79    117.63      4.40      8.69
 REAL TIME  *       138.38 SEC
 DISK USED  *         2.88 GB      
 SF USED    *         1.53 GB      
 GA USED    *         2.40 MB       (max)       0.00 MB       (current)
 **********************************************************************************************************************************

     CCSD(T)-F12        HF-SCF  
   -264.76273639   -263.77181418
 **********************************************************************************************************************************
 Variable memory released
