
 Primary working directories    : /scratch/kee
 Secondary working directories  : /scratch/kee
 Wavefunction directory         : /home/kee/wfu/
 Main file repository           : /scratch/kee/

 ARCHNAME  : Linux/x86_64
 FC        : /opt/intel/composer_xe_2015.0.090/bin/intel64/ifort
 FCVERSION : 15.0.0
 BLASLIB   : -L/opt/intel/mkl/lib/intel64 -lmkl_intel_ilp64 -lmkl_sequential -lmkl_core
 id        : emory

 Nodes     nprocs
 node22       3
 Number of processes for MPI-2 version of Molpro:   nprocs(total)=    4   nprocs(compute)=    3   nprocs(helper)=    1
 ga_uses_ma=false, calling ma_init with nominal heap.
 GA-space will be limited to   8.0 MW (determined by -G option)

 Using customized tuning parameters: mindgm=7; mindgv=32; mindgc=1; mindgr=1; noblas=0; mincuda=1000; minvec=7
 default implementation of scratch files=sf  

 ***,co2h2o
 memory,100,m
 basis avtz
 geomtype = xyz
 geometry = {
 6
    -264.76489694
 O     0.82869278    1.16169550    0.00000000
 O     0.82658011   -1.16233555    0.00000000
 O    -3.49123448    0.00138651    0.00000000
 H    -4.07486749    0.76198116    0.00000000
 H    -4.07459938   -0.75941541    0.00000000
 C     0.80876519   -0.00029961    0.00000000
 }
 hf
 ccsd(t)-f12
 ---

 Variables initialized (665), CPU time= 0.01 sec
 Commands  initialized (462), CPU time= 0.00 sec, 486 directives.
 Default parameters read. Elapsed time= 0.03 sec

 Checking input...
 Passed
1


                                         ***  PROGRAM SYSTEM MOLPRO  ***
                         Copyright, University College Cardiff Consultants Limited, 2008

                                    Version 2010.1 linked 9 Dec 2014 15:06:28 


 **********************************************************************************************************************************
 LABEL *   co2h2o                                                                        
 Linux-2.6.32-504.el6.x86_64/node22(x86_64) 64 bit mpp version                           DATE: 12-Dec-16          TIME: 19:10:26  
 **********************************************************************************************************************************

 Patch level:      19
 **********************************************************************************************************************************

 Variable memory set to  100000000 words,  buffer space   230000 words

 SETTING BASIS          =    AVTZ
 SETTING GEOMTYPE       =    XYZ

Geometry recognized as XYZ



 Recomputing integrals since basis changed


 Using spherical harmonics

 Library entry O      S aug-cc-pVTZ          selected for orbital group  1
 Library entry O      P aug-cc-pVTZ          selected for orbital group  1
 Library entry O      D aug-cc-pVTZ          selected for orbital group  1
 Library entry O      F aug-cc-pVTZ          selected for orbital group  1
 Library entry H      S aug-cc-pVTZ          selected for orbital group  2
 Library entry H      P aug-cc-pVTZ          selected for orbital group  2
 Library entry H      D aug-cc-pVTZ          selected for orbital group  2
 Library entry C      S aug-cc-pVTZ          selected for orbital group  3
 Library entry C      P aug-cc-pVTZ          selected for orbital group  3
 Library entry C      D aug-cc-pVTZ          selected for orbital group  3
 Library entry C      F aug-cc-pVTZ          selected for orbital group  3

1PROGRAM * SEWARD (Integral evaluation for generally contracted gaussian basis sets)     Author: Roland Lindh, 1990

 Geometry written to block  1 of record 700


 Point group  Cs  



 ATOMIC COORDINATES

 NR  ATOM    CHARGE       X              Y              Z

   1  O       8.00    1.566002401    2.195286343    0.000000000
   2  O       8.00    1.562010034   -2.196495862    0.000000000
   3  O       8.00   -6.597477028    0.002620124    0.000000000
   4  H       1.00   -7.700383578    1.439935710    0.000000000
   5  H       1.00   -7.699876923   -1.435087145    0.000000000
   6  C       6.00    1.528344714   -0.000566181    0.000000000

 Bond lengths in Bohr (Angstrom)

 1-6  2.196175405  2-6  2.196187724  3-4  1.811706088  3-5  1.811708509
     (1.162165971)     (1.162172490)     (0.958713571)     (0.958714852)

 Bond angles

  1-6-2  178.13918425   4-3-5  105.01947441

 NUCLEAR CHARGE:                   32
 NUMBER OF PRIMITIVE AOS:         322
 NUMBER OF SYMMETRY AOS:          282
 NUMBER OF CONTRACTIONS:          230   ( 152A'  +  78A"  )
 NUMBER OF CORE ORBITALS:           4   (   4A'  +   0A"  )
 NUMBER OF VALENCE ORBITALS:       18   (  14A'  +   4A"  )


 NUCLEAR REPULSION ENERGY   93.13010326


 Eigenvalues of metric

         1 0.339E-03 0.361E-03 0.368E-03 0.378E-03 0.896E-03 0.920E-03 0.156E-02 0.162E-02
         2 0.317E-02 0.348E-02 0.568E-02 0.124E-01 0.135E-01 0.281E-01 0.296E-01 0.311E-01


 Contracted 2-electron integrals neglected if value below      1.0D-11
 AO integral compression algorithm  1   Integral accuracy      1.0D-11

     541.065 MB (compressed) written to integral file ( 32.6%)

     Node minimum: 173.539 MB, node maximum: 188.219 MB


 NUMBER OF SORTED TWO-ELECTRON INTEGRALS:   59950380.     BUFFER LENGTH:  32768
 NUMBER OF SEGMENTS:   4  SEGMENT LENGTH:   15995235      RECORD LENGTH: 524288

 Memory used in sort:      16.55 MW

 SORT1 READ   207531521. AND WROTE    42551376. INTEGRALS IN    123 RECORDS. CPU TIME:     2.96 SEC, REAL TIME:     3.41 SEC
 SORT2 READ   128348392. AND WROTE   179836431. INTEGRALS IN   2154 RECORDS. CPU TIME:     1.01 SEC, REAL TIME:     1.37 SEC

 Node minimum:    59940574.  Node maximum:    59950380. integrals

 OPERATOR DM      FOR CENTER  0  COORDINATES:    0.000000    0.000000    0.000000


 **********************************************************************************************************************************
 DATASETS  * FILE   NREC   LENGTH (MB)   RECORD NAMES
              1      18        3.74       500      610      700      900      950      970     1000      129      960     1100   
                                          VAR    BASINP    GEOM    SYMINP    ZMAT    AOBASIS   BASIS     P2S    ABASIS      S 
                                         1400     1410     1200     1210     1080     1600     1650     1700   
                                           T        V       H0       H01     AOSYM     SMH    MOLCAS    OPER   

 PROGRAMS   *        TOTAL       INT
 CPU TIMES  *         8.00      7.93
 REAL TIME  *         9.01 SEC
 DISK USED  *         2.06 GB      
 GA USED    *         0.00 MB       (max)       0.00 MB       (current)
 **********************************************************************************************************************************

1PROGRAM * RHF-SCF (CLOSED SHELL)       Authors: W. Meyer, H.-J. Werner


 NUMBER OF ELECTRONS:      16+   16-
 CONVERGENCE THRESHOLDS:    1.00E-05 (Density)    1.00E-07 (Energy)
 MAX. NUMBER OF ITERATIONS:       60
 INTERPOLATION TYPE:            DIIS
 INTERPOLATION STEPS:              2 (START)      1 (STEP)
 LEVEL SHIFTS:                  0.00 (CLOSED)  0.00 (OPEN) 



 Orbital guess generated from atomic densities. Full valence occupancy:   18   4

 Molecular orbital dump at record        2100.2

 Initial alpha occupancy:  13   3
 Initial beta  occupancy:  13   3
 Wave function symmetry:    1

 ITERATION    DDIFF          GRAD             ENERGY        2-EL.EN.            DIPOLE MOMENTS         DIIS
    1      0.000D+00      0.000D+00      -263.66276612    382.207867   -1.18462   -0.00012    0.00000    0
    2      0.000D+00      0.626D-02      -263.72759204    377.511798   -0.73468   -0.00008    0.00000    1
    3      0.100D-01      0.423D-02      -263.77002550    380.076743   -0.84348   -0.00008    0.00000    2
    4      0.412D-02      0.403D-03      -263.77052061    379.871225   -0.84631   -0.00008    0.00000    3
    5      0.486D-03      0.117D-03      -263.77057868    379.869466   -0.84142   -0.00008    0.00000    4
    6      0.182D-03      0.476D-04      -263.77058594    379.884816   -0.84218   -0.00008    0.00000    5
    7      0.608D-04      0.115D-04      -263.77058667    379.876308   -0.84176   -0.00008    0.00000    6
    8      0.197D-04      0.254D-05      -263.77058672    379.877627   -0.84177   -0.00008    0.00000    7
    9      0.540D-05      0.849D-06      -263.77058672    379.877418   -0.84174   -0.00008    0.00000    0

 Final occupancy:  13   3

 !RHF STATE 1.1 Energy               -263.770586720144
 Nuclear energy                        93.13010326
 One-electron energy                 -546.83939922
 Two-electron energy                  189.93870924
 Virial quotient                       -1.00184142
 !RHF STATE 1.1 Dipole moment          -0.84174381    -0.00007946     0.00000000
 Dipole moment /Debye                  -2.13935923    -0.00020195     0.00000000

 Orbital energies:

         1.1          2.1          3.1          4.1          5.1          6.1          7.1          8.1          9.1         10.1
    -20.643044   -20.642998   -20.570963   -11.452135    -1.520705    -1.467674    -1.356224    -0.791321    -0.733665    -0.721679

        11.1         12.1         13.1         14.1         15.1
     -0.704499    -0.588000    -0.534539     0.027682     0.047377

         1.2          2.2          3.2          4.2          5.2
     -0.704890    -0.534687    -0.513970     0.080545     0.162723


 **********************************************************************************************************************************
 DATASETS  * FILE   NREC   LENGTH (MB)   RECORD NAMES
              1      18        3.76       500      610      700      900      950      970     1000      129      960     1100   
                                          VAR    BASINP    GEOM    SYMINP    ZMAT    AOBASIS   BASIS     P2S    ABASIS      S 
                                         1400     1410     1200     1210     1080     1600     1650     1700   
                                           T        V       H0       H01     AOSYM     SMH    MOLCAS    OPER   

              2       3        0.96       700     1000     2100   
                                         GEOM     BASIS     RHF  

 PROGRAMS   *        TOTAL        HF       INT
 CPU TIMES  *        12.27      4.27      7.93
 REAL TIME  *        13.59 SEC
 DISK USED  *         2.09 GB      
 SF USED    *         0.12 MB      
 GA USED    *         0.00 MB       (max)       0.00 MB       (current)
 **********************************************************************************************************************************


1PROGRAM * CCSD (Closed-shell coupled cluster)     Authors: C. Hampel, H.-J. Werner, 1991, M. Deegan, P.J. Knowles, 1992

                                  CCSD-F12 implementation by  H.-J. Werner, 2007

                   Density fitting integral evaluation by F.R. Manby, 2003,2007, G. Knizia, 2010

 Basis set CC-PVTZ/JKFIT generated.      Number of basis functions:   376 
 Basis set AUG-CC-PVTZ/MP2FIT generated. Number of basis functions:   516 

 Convergence thresholds:  THRVAR = 1.00D-08  THRDEN = 1.00D-06

 CCSD(T)     terms to be evaluated (factor= 1.000)


 Number of core orbitals:           4 (   4   0 )
 Number of closed-shell orbitals:  12 (   9   3 )
 Number of external orbitals:     214 ( 139  75 )

 Molecular orbitals read from record     2100.2  Type=RHF/CANONICAL (state 1.1)

 MP2-F12 correlation treatment (H.-J. Werner, 2006)
 --------------------------------------------------

 Using MP2-F12 with ansatz 3C(FIX)

 Using projected zeroth-order Hamiltonian (+Z)

 FOCKRIB=T FOCKRIC=T FOCKRIP=T CABSP=T CABSA=T CABSK=T CABSF=T GBC=F EBC=F DMAT=T NOFIK=T NOPAO=1 SOLVE=-1  USEPAO=0
 EXCH_A= T EXCH_B= F EXCH_C= F EXCH_P= F
 
 Geminal basis:    OPTFULL  GEM_TYPE=SLATER  BETA=1.0  NGEM=6

 Optimizing Gaussian exponents for each gem_beta

 Geminal optimization for beta= 1.0000
 Weight function:   m=0, omega= 1.4646

 Augmented Hessian optimization of geminal fit. Trust ratio= 0.40000
 Convergence reached after   2 iterations. Final gradient= 8.24D-16, Step= 4.32D-06, Delta= 1.28D-09
 
 Alpha:                 0.19532     0.81920     2.85917     9.50073    35.69989   197.79328
 Coeff:                 0.27070     0.30552     0.18297     0.10986     0.06810     0.04224
 

 Symmetry turned off. Reference energy:       -263.770586720144

 All pairs explicitly correlated. Number of r12-pairs:           78
 
 AO(A)-basis ORBITAL           loaded. Number of functions:     230
 RI(R)-basis CC-PVTZ/JKFIT     loaded. Number of functions:     376
 DF-basis CC-PVTZ/JKFIT        loaded. Number of functions:     376

 Screening thresholds:   THRAO=  1.00D-10  THRMO=  1.00D-09  THRPROD=  1.00D-09
                         THRSW=  1.00D-05  THROV=  1.00D-12  THRF12=   1.00D-08

 CPU time for Fock operators                      0.93 sec
 
 Construction of ABS:
 Smallest eigenvalue of S          2.57E-04  (threshold= 1.00E-08)
 Ratio eigmin/eigmax               1.83E-06  (threshold= 1.00E-09)
 Smallest eigenvalue of S kept     2.57E-04  (threshold= 2.57E-04, 0 functions deleted, 376 kept)
 
 Construction of CABS:
 Smallest eigenvalue of S          2.30E-08  (threshold= 1.00E-08)
 Ratio eigmin/eigmax               2.30E-08  (threshold= 1.00E-09)
 Smallest eigenvalue of S kept     2.30E-08  (threshold= 2.30E-08, 0 functions deleted, 376 kept)
 
 CPU time for CABS singles                        0.16 sec

 CABS-singles contribution of  -0.01591821 patched into reference energy.
 New reference energy        -263.78650493
 
 AO(A)-basis ORBITAL           loaded. Number of functions:     230
 RI(R)-basis CC-PVTZ/JKFIT     loaded. Number of functions:     376
 DF-basis AUG-CC-PVTZ/MP2FIT   loaded. Number of functions:     516

 Screening thresholds:   THRAO=  1.00D-10  THRMO=  1.00D-09  THRPROD=  1.00D-09
                         THRSW=  1.00D-05  THROV=  1.00D-12  THRF12=   1.00D-08

 CPU time for 3-index integral evaluation         2.56 sec
 CPU time for first  half transformation          0.30 sec ( 9239.7 MFLOP/sec)
 CPU time for second half transformation          0.02 sec ( 5577.9 MFLOP/sec)
 CPU time for sorting                             0.19 sec
 CPU time for fitting                             0.06 sec (23217.5 MFLOP/sec)
 CPU time for tilde quantities                    0.06 sec (32856.0 MFLOP/sec)
 CPU time for assembly                            0.79 sec (29542.6 MFLOP/sec)
 CPU time for tranop_f12                          0.89 sec (33782.5 MFLOP/sec)
 CPU time for f12 integrals (total)               6.94 sec
 F12-matrices built in  3 passes.
 F12-matrices built in  3 passes.
 F12-matrices built in  3 passes.
 F12-matrices built in  3 passes.
 FC-matrix built in  3 passes.
 CPU time for f12 matrices (total)                0.47 sec

 Diagonal F12 approximation with fixed coefficients:  TSING= 0.500,  TTRIP= 0.250 (scaled by -1/beta)

 DF-MP2-F12 energy corrections:
 ------------------------------
 Approx.                                    Singlet             Triplet             Total
 DF-MP2-F12/3*C(DX,FIX)                -0.097419456419     -0.016929581100     -0.114349037519
 DF-MP2-F12/3*C(FIX)                   -0.079844836532     -0.013393731855     -0.093238568387
 DF-MP2-F12/3C(FIX)                    -0.080207420105     -0.013418384084     -0.093625804189

 DF-MP2-F12 correlation energies:
 --------------------------------
 Approx.                                    Singlet             Triplet             Ecorr            Total Energy
 DF-MP2                                -0.537675322241     -0.343124079683     -0.880799401924   -264.667304331555
 DF-MP2-F12/3*C(DX,FIX)                -0.635094778659     -0.360053660783     -0.995148439442   -264.781653369074
 DF-MP2-F12/3*C(FIX)                   -0.617520158773     -0.356517811537     -0.974037970310   -264.760542899942
 DF-MP2-F12/3C(FIX)                    -0.617882742345     -0.356542463767     -0.974425206112   -264.760930135744

 SCS-DF-MP2 energies (F_SING= 1.20000  F_TRIP= 0.62222  F_PARALLEL= 0.33333):
 ----------------------------------------------------------------------------
 SCS-DF-MP2                            -0.858709814047   -264.645214743679
 SCS-DF-MP2-F12/3*C(DX,FIX)            -0.986147123323   -264.772652052954
 SCS-DF-MP2-F12/3*C(FIX)               -0.962857495484   -264.749362425116
 SCS-DF-MP2-F12/3C(FIX)                -0.963307934936   -264.749812864568

 Symmetry restored.
 Symmetry transformation completed.

 Number of N-1 electron functions:              12
 Number of N-2 electron functions:              78
 Number of singly external CSFs:              1476
 Number of doubly external CSFs:           1686804
 Total number of CSFs:                     1688281

 Pair and operator lists are different

 Length of J-op  integral file:             466.42 MB
 Length of K-op  integral file:             526.62 MB
 Length of 3-ext integral record:             0.00 MB

 Memory could be reduced to 76.61 Mwords without degradation in triples

 Integral transformation finished. Total CPU:   4.00 sec, npass=  1  Memory used:  24.61 MW

 Reference energy:                   -263.78650493

 Adding F12 terms to K(Cij), methodcc=6,  factor=1.0

 ITER.      SQ.NORM     CORR.ENERGY   TOTAL ENERGY   ENERGY CHANGE        DEN1      VAR(S)    VAR(P)  DIIS     TIME
   1      1.20210089    -0.86277057  -264.64927550     0.01804490     0.04663322  0.72D-02  0.55D-02  1  1    15.58
   2      1.21640037    -0.85856185  -264.64506678     0.00420872    -0.02013023  0.87D-04  0.59D-03  2  2    18.33
   3      1.22176261    -0.85866174  -264.64516666    -0.00009989    -0.00236550  0.13D-03  0.32D-04  3  3    21.20
   4      1.22456543    -0.85853428  -264.64503921     0.00012745    -0.00141127  0.76D-05  0.41D-05  4  4    24.01
   5      1.22559509    -0.85849668  -264.64500161     0.00003760    -0.00036587  0.56D-06  0.28D-06  5  5    26.81
   6      1.22575718    -0.85846981  -264.64497474     0.00002687    -0.00000804  0.40D-07  0.24D-07  6  6    29.61
   7      1.22578655    -0.85846739  -264.64497232     0.00000242    -0.00000622  0.26D-08  0.40D-08  6  4    32.43
   8      1.22578686    -0.85846690  -264.64497183     0.00000049     0.00000194  0.40D-09  0.27D-09  6  1    36.68
   9      1.22578747    -0.85846697  -264.64497189    -0.00000007     0.00000056  0.27D-10  0.22D-10  6  2    39.51

 Norm of t1 vector:      0.10597258      S-energy:    -0.00000003      T1 diagnostic:  0.01529582
                                                                       D1 diagnostic:  0.04503369

 Adding energy correction from Wij-K(Fij), methodcc=6  factor=1.0
 
  CCSD correlation energy              -0.858466965326
  MP2-F12 correction (uncoupled)       -0.092467999011
  C*T doubles correction               -0.001473525427
  f12b correction                       0.015405266423


 Total CPU time for triples:     74.69 sec


 RESULTS
 =======

  Reference energy                   -263.770586720145
  F12 singles correction               -0.015918209487

 F12 singles corrections added to reference energy

  New reference energy               -263.786504929632

  F12a singlet correction              -0.080405321699
  F12a triplet correction              -0.013536202740
  F12a total correction                -0.093941524438

 F12a corrections for ansatz F12/3C(FIX) added to CCSD energy
 
  CCSD-F12a singlet pair energy        -0.641812163305
  CCSD-F12a triplet pair energy        -0.310596299460
  CCSD-F12a correlation energy         -0.952408489764

  Triples (T) contribution             -0.037645641654
  Total correlation energy             -0.990054131418

  CCSD-F12a total energy             -264.738913419396
  CCSD[T]-F12a energy                -264.779099132595
  CCSD-T-F12a energy                 -264.775623711032
 !CCSD(T)-F12a total energy          -264.776559061050

 F12b corrections for ansatz F12/3C(FIX) added to CCSD(T)-F12a energy

  CCSD-F12b singlet pair energy        -0.627630458810
  CCSD-F12b triplet pair energy        -0.309372737532
  CCSD-F12b correlation energy         -0.937003223341

  Triples (T) contribution             -0.037645641654
  Total correlation energy             -0.974648864995

  CCSD-F12b total energy             -264.723508152973
  CCSD[T]-F12b energy                -264.763693866171
  CCSD-T-F12b energy                 -264.760218444609
 !CCSD(T)-F12b total energy          -264.761153794627

 Timing summary (sec):

 STEP                 CPU(USER)    SYS     CPU(TOT)    WALL
 Transformation          4.03      0.52      4.55      4.54
 CCSD iterations        26.56      1.60     28.16     28.14
 Triples                74.69      1.47     76.16     76.13
 MP2-F12                 8.94      1.20     10.14     10.15
 F12b energy             1.81      0.04      1.85      1.85

 Program statistics:

 Available memory in ccsd:                99998934
 Min. memory needed in ccsd:               4458306
 Max. memory used in ccsd:                 5958390
 Max. memory used in cckext:               6352469 (10 integral passes)



 **********************************************************************************************************************************
 DATASETS  * FILE   NREC   LENGTH (MB)   RECORD NAMES
              1      20      269.66       500      610      700      900      950      970     1000      129      960     1100   
                                          VAR    BASINP    GEOM    SYMINP    ZMAT    AOBASIS   BASIS     P2S    ABASIS      S 
                                         1400     1410     1200     1210     1080     1600     1650     1700      960(1)  1380   
                                           T        V       H0       H01     AOSYM     SMH    MOLCAS    OPER    ABASIS    JKOP   

              2       5        1.55       700     1000     2100     7360     7350   
                                         GEOM     BASIS     RHF    F12ABS    EF12   

 PROGRAMS   *        TOTAL   CCSD(T)        HF       INT
 CPU TIMES  *       128.41    116.14      4.27      7.93
 REAL TIME  *       134.72 SEC
 DISK USED  *         2.53 GB      
 SF USED    *         1.53 GB      
 GA USED    *         2.40 MB       (max)       0.00 MB       (current)
 **********************************************************************************************************************************

     CCSD(T)-F12        HF-SCF  
   -264.76115379   -263.77058672
 **********************************************************************************************************************************
 Variable memory released
