
 Primary working directories    : /scratch/kee
 Secondary working directories  : /scratch/kee
 Wavefunction directory         : /home/kee/wfu/
 Main file repository           : /scratch/kee/

 ARCHNAME  : Linux/x86_64
 FC        : /opt/intel/composer_xe_2015.0.090/bin/intel64/ifort
 FCVERSION : 15.0.0
 BLASLIB   : -L/opt/intel/mkl/lib/intel64 -lmkl_intel_ilp64 -lmkl_sequential -lmkl_core
 id        : emory

 Nodes     nprocs
 node22       3
 Number of processes for MPI-2 version of Molpro:   nprocs(total)=    4   nprocs(compute)=    3   nprocs(helper)=    1
 ga_uses_ma=false, calling ma_init with nominal heap.
 GA-space will be limited to   8.0 MW (determined by -G option)

 Using customized tuning parameters: mindgm=7; mindgv=32; mindgc=1; mindgr=1; noblas=0; mincuda=1000; minvec=7
 default implementation of scratch files=sf  

 ***,co2h2o
 memory,100,m
 basis avtz
 geomtype = xyz
 geometry = {
 6
    -264.76489694
 O     0.82869278    1.16169550    0.00000000
 O     0.82658011   -1.16233555    0.00000000
 O    -5.09123436    0.00201390    0.00000000
 H    -5.67486737    0.76260855    0.00000000
 H    -5.67459926   -0.75878802    0.00000000
 C     0.80876519   -0.00029961    0.00000000
 }
 hf
 ccsd(t)-f12
 ---

 Variables initialized (665), CPU time= 0.01 sec
 Commands  initialized (462), CPU time= 0.01 sec, 486 directives.
 Default parameters read. Elapsed time= 0.04 sec

 Checking input...
 Passed
1


                                         ***  PROGRAM SYSTEM MOLPRO  ***
                         Copyright, University College Cardiff Consultants Limited, 2008

                                    Version 2010.1 linked 9 Dec 2014 15:06:28 


 **********************************************************************************************************************************
 LABEL *   co2h2o                                                                        
 Linux-2.6.32-504.el6.x86_64/node22(x86_64) 64 bit mpp version                           DATE: 12-Dec-16          TIME: 20:22:54  
 **********************************************************************************************************************************

 Patch level:      19
 **********************************************************************************************************************************

 Variable memory set to  100000000 words,  buffer space   230000 words

 SETTING BASIS          =    AVTZ
 SETTING GEOMTYPE       =    XYZ

Geometry recognized as XYZ



 Recomputing integrals since basis changed


 Using spherical harmonics

 Library entry O      S aug-cc-pVTZ          selected for orbital group  1
 Library entry O      P aug-cc-pVTZ          selected for orbital group  1
 Library entry O      D aug-cc-pVTZ          selected for orbital group  1
 Library entry O      F aug-cc-pVTZ          selected for orbital group  1
 Library entry H      S aug-cc-pVTZ          selected for orbital group  2
 Library entry H      P aug-cc-pVTZ          selected for orbital group  2
 Library entry H      D aug-cc-pVTZ          selected for orbital group  2
 Library entry C      S aug-cc-pVTZ          selected for orbital group  3
 Library entry C      P aug-cc-pVTZ          selected for orbital group  3
 Library entry C      D aug-cc-pVTZ          selected for orbital group  3
 Library entry C      F aug-cc-pVTZ          selected for orbital group  3

1PROGRAM * SEWARD (Integral evaluation for generally contracted gaussian basis sets)     Author: Roland Lindh, 1990

 Geometry written to block  1 of record 700


 Point group  Cs  



 ATOMIC COORDINATES

 NR  ATOM    CHARGE       X              Y              Z

   1  O       8.00    1.566002401    2.195286343    0.000000000
   2  O       8.00    1.562010034   -2.196495862    0.000000000
   3  O       8.00   -9.621038611    0.003805719    0.000000000
   4  H       1.00  -10.723945161    1.441121305    0.000000000
   5  H       1.00  -10.723438507   -1.433901550    0.000000000
   6  C       6.00    1.528344714   -0.000566181    0.000000000

 Bond lengths in Bohr (Angstrom)

 1-6  2.196175405  2-6  2.196187724  3-4  1.811706088  3-5  1.811708509
     (1.162165971)     (1.162172490)     (0.958713571)     (0.958714852)

 Bond angles

  1-6-2  178.13918425   4-3-5  105.01947441

 NUCLEAR CHARGE:                   32
 NUMBER OF PRIMITIVE AOS:         322
 NUMBER OF SYMMETRY AOS:          282
 NUMBER OF CONTRACTIONS:          230   ( 152A'  +  78A"  )
 NUMBER OF CORE ORBITALS:           4   (   4A'  +   0A"  )
 NUMBER OF VALENCE ORBITALS:       18   (  14A'  +   4A"  )


 NUCLEAR REPULSION ENERGY   86.51989790


 Eigenvalues of metric

         1 0.347E-03 0.368E-03 0.391E-03 0.392E-03 0.898E-03 0.921E-03 0.165E-02 0.171E-02
         2 0.318E-02 0.348E-02 0.589E-02 0.124E-01 0.135E-01 0.289E-01 0.296E-01 0.315E-01


 Contracted 2-electron integrals neglected if value below      1.0D-11
 AO integral compression algorithm  1   Integral accuracy      1.0D-11

     397.672 MB (compressed) written to integral file ( 25.1%)

     Node minimum: 124.781 MB, node maximum: 137.101 MB


 NUMBER OF SORTED TWO-ELECTRON INTEGRALS:   59950380.     BUFFER LENGTH:  32768
 NUMBER OF SEGMENTS:   4  SEGMENT LENGTH:   15995235      RECORD LENGTH: 524288

 Memory used in sort:      16.55 MW

 SORT1 READ   198110333. AND WROTE    29672074. INTEGRALS IN     87 RECORDS. CPU TIME:     2.28 SEC, REAL TIME:     2.58 SEC
 SORT2 READ    89345145. AND WROTE   179836431. INTEGRALS IN   1554 RECORDS. CPU TIME:     0.80 SEC, REAL TIME:     1.04 SEC

 Node minimum:    59940574.  Node maximum:    59950380. integrals

 OPERATOR DM      FOR CENTER  0  COORDINATES:    0.000000    0.000000    0.000000


 **********************************************************************************************************************************
 DATASETS  * FILE   NREC   LENGTH (MB)   RECORD NAMES
              1      18        3.74       500      610      700      900      950      970     1000      129      960     1100   
                                          VAR    BASINP    GEOM    SYMINP    ZMAT    AOBASIS   BASIS     P2S    ABASIS      S 
                                         1400     1410     1200     1210     1080     1600     1650     1700   
                                           T        V       H0       H01     AOSYM     SMH    MOLCAS    OPER   

 PROGRAMS   *        TOTAL       INT
 CPU TIMES  *         6.36      6.29
 REAL TIME  *         7.06 SEC
 DISK USED  *         1.45 GB      
 GA USED    *         0.00 MB       (max)       0.00 MB       (current)
 **********************************************************************************************************************************

1PROGRAM * RHF-SCF (CLOSED SHELL)       Authors: W. Meyer, H.-J. Werner


 NUMBER OF ELECTRONS:      16+   16-
 CONVERGENCE THRESHOLDS:    1.00E-05 (Density)    1.00E-07 (Energy)
 MAX. NUMBER OF ITERATIONS:       60
 INTERPOLATION TYPE:            DIIS
 INTERPOLATION STEPS:              2 (START)      1 (STEP)
 LEVEL SHIFTS:                  0.00 (CLOSED)  0.00 (OPEN) 



 Orbital guess generated from atomic densities. Full valence occupancy:   18   4

 Molecular orbital dump at record        2100.2

 Initial alpha occupancy:  13   3
 Initial beta  occupancy:  13   3
 Wave function symmetry:    1

 ITERATION    DDIFF          GRAD             ENERGY        2-EL.EN.            DIPOLE MOMENTS         DIIS
    1      0.000D+00      0.000D+00      -263.66098978    368.771506   -1.18424   -0.00012    0.00000    0
    2      0.000D+00      0.629D-02      -263.72613372    364.137281   -0.70020   -0.00009    0.00000    1
    3      0.101D-01      0.426D-02      -263.76921361    366.705118   -0.81992   -0.00009    0.00000    2
    4      0.415D-02      0.402D-03      -263.76970859    366.494897   -0.82307   -0.00009    0.00000    3
    5      0.485D-03      0.117D-03      -263.76976659    366.495903   -0.81780   -0.00009    0.00000    4
    6      0.181D-03      0.473D-04      -263.76977377    366.510622   -0.81849   -0.00009    0.00000    5
    7      0.604D-04      0.115D-04      -263.76977450    366.502213   -0.81805   -0.00009    0.00000    6
    8      0.197D-04      0.254D-05      -263.76977455    366.503518   -0.81806   -0.00009    0.00000    7
    9      0.541D-05      0.851D-06      -263.76977455    366.503320   -0.81803   -0.00009    0.00000    0

 Final occupancy:  13   3

 !RHF STATE 1.1 Energy               -263.769774553165
 Nuclear energy                        86.51989790
 One-electron energy                 -533.54133261
 Two-electron energy                  183.25166016
 Virial quotient                       -1.00183199
 !RHF STATE 1.1 Dipole moment          -0.81802937    -0.00008920     0.00000000
 Dipole moment /Debye                  -2.07908708    -0.00022671     0.00000000

 Orbital energies:

         1.1          2.1          3.1          4.1          5.1          6.1          7.1          8.1          9.1         10.1
    -20.647669   -20.647623   -20.568724   -11.456524    -1.525331    -1.472247    -1.353977    -0.795665    -0.737940    -0.719499

        11.1         12.1         13.1         14.1         15.1
     -0.709298    -0.585327    -0.539025     0.028107     0.046993

         1.2          2.2          3.2          4.2          5.2
     -0.709429    -0.539101    -0.511628     0.077526     0.158794


 **********************************************************************************************************************************
 DATASETS  * FILE   NREC   LENGTH (MB)   RECORD NAMES
              1      18        3.76       500      610      700      900      950      970     1000      129      960     1100   
                                          VAR    BASINP    GEOM    SYMINP    ZMAT    AOBASIS   BASIS     P2S    ABASIS      S 
                                         1400     1410     1200     1210     1080     1600     1650     1700   
                                           T        V       H0       H01     AOSYM     SMH    MOLCAS    OPER   

              2       3        0.96       700     1000     2100   
                                         GEOM     BASIS     RHF  

 PROGRAMS   *        TOTAL        HF       INT
 CPU TIMES  *        10.12      3.76      6.29
 REAL TIME  *        11.00 SEC
 DISK USED  *         1.48 GB      
 SF USED    *         0.12 MB      
 GA USED    *         0.00 MB       (max)       0.00 MB       (current)
 **********************************************************************************************************************************


1PROGRAM * CCSD (Closed-shell coupled cluster)     Authors: C. Hampel, H.-J. Werner, 1991, M. Deegan, P.J. Knowles, 1992

                                  CCSD-F12 implementation by  H.-J. Werner, 2007

                   Density fitting integral evaluation by F.R. Manby, 2003,2007, G. Knizia, 2010

 Basis set CC-PVTZ/JKFIT generated.      Number of basis functions:   376 
 Basis set AUG-CC-PVTZ/MP2FIT generated. Number of basis functions:   516 

 Convergence thresholds:  THRVAR = 1.00D-08  THRDEN = 1.00D-06

 CCSD(T)     terms to be evaluated (factor= 1.000)


 Number of core orbitals:           4 (   4   0 )
 Number of closed-shell orbitals:  12 (   9   3 )
 Number of external orbitals:     214 ( 139  75 )

 Molecular orbitals read from record     2100.2  Type=RHF/CANONICAL (state 1.1)

 MP2-F12 correlation treatment (H.-J. Werner, 2006)
 --------------------------------------------------

 Using MP2-F12 with ansatz 3C(FIX)

 Using projected zeroth-order Hamiltonian (+Z)

 FOCKRIB=T FOCKRIC=T FOCKRIP=T CABSP=T CABSA=T CABSK=T CABSF=T GBC=F EBC=F DMAT=T NOFIK=T NOPAO=1 SOLVE=-1  USEPAO=0
 EXCH_A= T EXCH_B= F EXCH_C= F EXCH_P= F
 
 Geminal basis:    OPTFULL  GEM_TYPE=SLATER  BETA=1.0  NGEM=6

 Optimizing Gaussian exponents for each gem_beta

 Geminal optimization for beta= 1.0000
 Weight function:   m=0, omega= 1.4646

 Augmented Hessian optimization of geminal fit. Trust ratio= 0.40000
 Convergence reached after   2 iterations. Final gradient= 8.24D-16, Step= 4.32D-06, Delta= 1.28D-09
 
 Alpha:                 0.19532     0.81920     2.85917     9.50073    35.69989   197.79328
 Coeff:                 0.27070     0.30552     0.18297     0.10986     0.06810     0.04224
 

 Symmetry turned off. Reference energy:       -263.769774553165

 All pairs explicitly correlated. Number of r12-pairs:           78
 
 AO(A)-basis ORBITAL           loaded. Number of functions:     230
 RI(R)-basis CC-PVTZ/JKFIT     loaded. Number of functions:     376
 DF-basis CC-PVTZ/JKFIT        loaded. Number of functions:     376

 Screening thresholds:   THRAO=  1.00D-10  THRMO=  1.00D-09  THRPROD=  1.00D-09
                         THRSW=  1.00D-05  THROV=  1.00D-12  THRF12=   1.00D-08

 CPU time for Fock operators                      0.87 sec
 
 Construction of ABS:
 Smallest eigenvalue of S          2.57E-04  (threshold= 1.00E-08)
 Ratio eigmin/eigmax               1.83E-06  (threshold= 1.00E-09)
 Smallest eigenvalue of S kept     2.57E-04  (threshold= 2.57E-04, 0 functions deleted, 376 kept)
 
 Construction of CABS:
 Smallest eigenvalue of S          2.30E-08  (threshold= 1.00E-08)
 Ratio eigmin/eigmax               2.30E-08  (threshold= 1.00E-09)
 Smallest eigenvalue of S kept     2.30E-08  (threshold= 2.30E-08, 0 functions deleted, 376 kept)
 
 CPU time for CABS singles                        0.15 sec

 CABS-singles contribution of  -0.01592197 patched into reference energy.
 New reference energy        -263.78569652
 
 AO(A)-basis ORBITAL           loaded. Number of functions:     230
 RI(R)-basis CC-PVTZ/JKFIT     loaded. Number of functions:     376
 DF-basis AUG-CC-PVTZ/MP2FIT   loaded. Number of functions:     516

 Screening thresholds:   THRAO=  1.00D-10  THRMO=  1.00D-09  THRPROD=  1.00D-09
                         THRSW=  1.00D-05  THROV=  1.00D-12  THRF12=   1.00D-08

 CPU time for 3-index integral evaluation         1.95 sec
 CPU time for first  half transformation          0.25 sec (11197.0 MFLOP/sec)
 CPU time for second half transformation          0.02 sec ( 5394.3 MFLOP/sec)
 CPU time for sorting                             0.12 sec
 CPU time for fitting                             0.04 sec (34826.3 MFLOP/sec)
 CPU time for tilde quantities                    0.06 sec (30814.7 MFLOP/sec)
 CPU time for assembly                            0.75 sec (31722.8 MFLOP/sec)
 CPU time for tranop_f12                          0.86 sec (34967.0 MFLOP/sec)
 CPU time for f12 integrals (total)               6.03 sec
 F12-matrices built in  3 passes.
 F12-matrices built in  3 passes.
 F12-matrices built in  3 passes.
 F12-matrices built in  3 passes.
 FC-matrix built in  3 passes.
 CPU time for f12 matrices (total)                0.47 sec

 Diagonal F12 approximation with fixed coefficients:  TSING= 0.500,  TTRIP= 0.250 (scaled by -1/beta)

 DF-MP2-F12 energy corrections:
 ------------------------------
 Approx.                                    Singlet             Triplet             Total
 DF-MP2-F12/3*C(DX,FIX)                -0.097448569906     -0.016933292515     -0.114381862421
 DF-MP2-F12/3*C(FIX)                   -0.079865959822     -0.013395381940     -0.093261341762
 DF-MP2-F12/3C(FIX)                    -0.080226626309     -0.013418562907     -0.093645189215

 DF-MP2-F12 correlation energies:
 --------------------------------
 Approx.                                    Singlet             Triplet             Ecorr            Total Energy
 DF-MP2                                -0.537700123030     -0.343060003648     -0.880760126678   -264.666456649808
 DF-MP2-F12/3*C(DX,FIX)                -0.635148692936     -0.359993296163     -0.995141989098   -264.780838512229
 DF-MP2-F12/3*C(FIX)                   -0.617566082852     -0.356455385588     -0.974021468440   -264.759717991570
 DF-MP2-F12/3C(FIX)                    -0.617926749339     -0.356478566554     -0.974405315893   -264.760101839023

 SCS-DF-MP2 energies (F_SING= 1.20000  F_TRIP= 0.62222  F_PARALLEL= 0.33333):
 ----------------------------------------------------------------------------
 SCS-DF-MP2                            -0.858699705461   -264.644396228592
 SCS-DF-MP2-F12/3*C(DX,FIX)            -0.986174260246   -264.771870783377
 SCS-DF-MP2-F12/3*C(FIX)               -0.962873761566   -264.748570284696
 SCS-DF-MP2-F12/3C(FIX)                -0.963320985062   -264.749017508193

 Symmetry restored.
 Symmetry transformation completed.

 Number of N-1 electron functions:              12
 Number of N-2 electron functions:              78
 Number of singly external CSFs:              1476
 Number of doubly external CSFs:           1686804
 Total number of CSFs:                     1688281

 Pair and operator lists are different

 Length of J-op  integral file:             466.42 MB
 Length of K-op  integral file:             526.62 MB
 Length of 3-ext integral record:             0.00 MB

 Memory could be reduced to 76.61 Mwords without degradation in triples

 Integral transformation finished. Total CPU:   3.76 sec, npass=  1  Memory used:  24.61 MW

 Reference energy:                   -263.78569652

 Adding F12 terms to K(Cij), methodcc=6,  factor=1.0

 ITER.      SQ.NORM     CORR.ENERGY   TOTAL ENERGY   ENERGY CHANGE        DEN1      VAR(S)    VAR(P)  DIIS     TIME
   1      1.20212406    -0.86272090  -264.64841742     0.01805563     0.04667420  0.72D-02  0.56D-02  1  1    14.22
   2      1.21643131    -0.85849841  -264.64419493     0.00422249    -0.02014474  0.86D-04  0.59D-03  2  2    16.87
   3      1.22179105    -0.85859531  -264.64429183    -0.00009690    -0.00236399  0.13D-03  0.32D-04  3  3    19.53
   4      1.22459249    -0.85846760  -264.64416413     0.00012770    -0.00141110  0.76D-05  0.41D-05  4  4    22.23
   5      1.22562220    -0.85842994  -264.64412646     0.00003766    -0.00036622  0.56D-06  0.29D-06  5  5    24.81
   6      1.22578435    -0.85840308  -264.64409960     0.00002686    -0.00000805  0.40D-07  0.24D-07  6  6    27.50
   7      1.22581370    -0.85840066  -264.64409718     0.00000242    -0.00000621  0.25D-08  0.40D-08  6  4    30.09
   8      1.22581400    -0.85840017  -264.64409669     0.00000049     0.00000194  0.39D-09  0.27D-09  6  1    32.64
   9      1.22581461    -0.85840023  -264.64409676    -0.00000007     0.00000056  0.26D-10  0.21D-10  6  2    35.32

 Norm of t1 vector:      0.10595150      S-energy:    -0.00000003      T1 diagnostic:  0.01529278
                                                                       D1 diagnostic:  0.04496587

 Adding energy correction from Wij-K(Fij), methodcc=6  factor=1.0
 
  CCSD correlation energy              -0.858400233521
  MP2-F12 correction (uncoupled)       -0.092489256895
  C*T doubles correction               -0.001474882346
  f12b correction                       0.015406828655


 Total CPU time for triples:     72.00 sec


 RESULTS
 =======

  Reference energy                   -263.769774553165
  F12 singles correction               -0.015921969965

 F12 singles corrections added to reference energy

  New reference energy               -263.785696523130

  F12a singlet correction              -0.080426808353
  F12a triplet correction              -0.013537330888
  F12a total correction                -0.093964139241

 F12a corrections for ansatz F12/3C(FIX) added to CCSD energy
 
  CCSD-F12a singlet pair energy        -0.641863881055
  CCSD-F12a triplet pair energy        -0.310500466630
  CCSD-F12a correlation energy         -0.952364372762

  Triples (T) contribution             -0.037634662400
  Total correlation energy             -0.989999035162

  CCSD-F12a total energy             -264.738060895892
  CCSD[T]-F12a energy                -264.778237791034
  CCSD-T-F12a energy                 -264.774758685923
 !CCSD(T)-F12a total energy          -264.775695558293

 F12b corrections for ansatz F12/3C(FIX) added to CCSD(T)-F12a energy

  CCSD-F12b singlet pair energy        -0.627680427125
  CCSD-F12b triplet pair energy        -0.309277091906
  CCSD-F12b correlation energy         -0.936957544107

  Triples (T) contribution             -0.037634662400
  Total correlation energy             -0.974592206508

  CCSD-F12b total energy             -264.722654067237
  CCSD[T]-F12b energy                -264.762830962379
  CCSD-T-F12b energy                 -264.759351857268
 !CCSD(T)-F12b total energy          -264.760288729638

 Timing summary (sec):

 STEP                 CPU(USER)    SYS     CPU(TOT)    WALL
 Transformation          3.79      0.52      4.31      4.32
 CCSD iterations        23.62      1.72     25.34     25.81
 Triples                72.00      1.56     73.56     73.55
 MP2-F12                 7.92      1.13      9.05      9.04
 F12b energy             1.72      0.04      1.76      1.76

 Program statistics:

 Available memory in ccsd:                99998934
 Min. memory needed in ccsd:               4458306
 Max. memory used in ccsd:                 5958390
 Max. memory used in cckext:               6352469 (10 integral passes)



 **********************************************************************************************************************************
 DATASETS  * FILE   NREC   LENGTH (MB)   RECORD NAMES
              1      20      269.66       500      610      700      900      950      970     1000      129      960     1100   
                                          VAR    BASINP    GEOM    SYMINP    ZMAT    AOBASIS   BASIS     P2S    ABASIS      S 
                                         1400     1410     1200     1210     1080     1600     1650     1700      960(1)  1380   
                                           T        V       H0       H01     AOSYM     SMH    MOLCAS    OPER    ABASIS    JKOP   

              2       5        1.55       700     1000     2100     7360     7350   
                                         GEOM     BASIS     RHF    F12ABS    EF12   

 PROGRAMS   *        TOTAL   CCSD(T)        HF       INT
 CPU TIMES  *       119.30    109.18      3.76      6.29
 REAL TIME  *       125.81 SEC
 DISK USED  *         1.92 GB      
 SF USED    *         1.53 GB      
 GA USED    *         2.40 MB       (max)       0.00 MB       (current)
 **********************************************************************************************************************************

     CCSD(T)-F12        HF-SCF  
   -264.76028873   -263.76977455
 **********************************************************************************************************************************
 Variable memory released
