
 Primary working directories    : /scratch/kee
 Secondary working directories  : /scratch/kee
 Wavefunction directory         : /home/kee/wfu/
 Main file repository           : /scratch/kee/

 ARCHNAME  : Linux/x86_64
 FC        : /opt/intel/composer_xe_2015.0.090/bin/intel64/ifort
 FCVERSION : 15.0.0
 BLASLIB   : -L/opt/intel/mkl/lib/intel64 -lmkl_intel_ilp64 -lmkl_sequential -lmkl_core
 id        : emory

 Nodes     nprocs
 node22       3
 Number of processes for MPI-2 version of Molpro:   nprocs(total)=    4   nprocs(compute)=    3   nprocs(helper)=    1
 ga_uses_ma=false, calling ma_init with nominal heap.
 GA-space will be limited to   8.0 MW (determined by -G option)

 Using customized tuning parameters: mindgm=7; mindgv=32; mindgc=1; mindgr=1; noblas=0; mincuda=1000; minvec=7
 default implementation of scratch files=sf  

 ***,co2h2o
 memory,100,m
 basis avtz
 geomtype = xyz
 geometry = {
 6
    -264.76489694
 O     0.82869278    1.16169550    0.00000000
 O     0.82658011   -1.16233555    0.00000000
 O    -2.24123458    0.00089636    0.00000000
 H    -2.82486759    0.76149101    0.00000000
 H    -2.82459948   -0.75990556    0.00000000
 C     0.80876519   -0.00029961    0.00000000
 }
 hf
 ccsd(t)-f12
 ---

 Variables initialized (665), CPU time= 0.00 sec
 Commands  initialized (462), CPU time= 0.01 sec, 486 directives.
 Default parameters read. Elapsed time= 0.03 sec

 Checking input...
 Passed
1


                                         ***  PROGRAM SYSTEM MOLPRO  ***
                         Copyright, University College Cardiff Consultants Limited, 2008

                                    Version 2010.1 linked 9 Dec 2014 15:06:28 


 **********************************************************************************************************************************
 LABEL *   co2h2o                                                                        
 Linux-2.6.32-504.el6.x86_64/node22(x86_64) 64 bit mpp version                           DATE: 12-Dec-16          TIME: 18:12:07  
 **********************************************************************************************************************************

 Patch level:      19
 **********************************************************************************************************************************

 Variable memory set to  100000000 words,  buffer space   230000 words

 SETTING BASIS          =    AVTZ
 SETTING GEOMTYPE       =    XYZ

Geometry recognized as XYZ



 Recomputing integrals since basis changed


 Using spherical harmonics

 Library entry O      S aug-cc-pVTZ          selected for orbital group  1
 Library entry O      P aug-cc-pVTZ          selected for orbital group  1
 Library entry O      D aug-cc-pVTZ          selected for orbital group  1
 Library entry O      F aug-cc-pVTZ          selected for orbital group  1
 Library entry H      S aug-cc-pVTZ          selected for orbital group  2
 Library entry H      P aug-cc-pVTZ          selected for orbital group  2
 Library entry H      D aug-cc-pVTZ          selected for orbital group  2
 Library entry C      S aug-cc-pVTZ          selected for orbital group  3
 Library entry C      P aug-cc-pVTZ          selected for orbital group  3
 Library entry C      D aug-cc-pVTZ          selected for orbital group  3
 Library entry C      F aug-cc-pVTZ          selected for orbital group  3

1PROGRAM * SEWARD (Integral evaluation for generally contracted gaussian basis sets)     Author: Roland Lindh, 1990

 Geometry written to block  1 of record 700


 Point group  Cs  



 ATOMIC COORDINATES

 NR  ATOM    CHARGE       X              Y              Z

   1  O       8.00    1.566002401    2.195286343    0.000000000
   2  O       8.00    1.562010034   -2.196495862    0.000000000
   3  O       8.00   -4.235319552    0.001693875    0.000000000
   4  H       1.00   -5.338226103    1.439009460    0.000000000
   5  H       1.00   -5.337719448   -1.436013394    0.000000000
   6  C       6.00    1.528344714   -0.000566181    0.000000000

 Bond lengths in Bohr (Angstrom)

 1-6  2.196175405  2-6  2.196187724  3-4  1.811706088  3-5  1.811708509
     (1.162165971)     (1.162172490)     (0.958713571)     (0.958714852)

 Bond angles

  1-6-2  178.13918425   4-3-5  105.01947441

 NUCLEAR CHARGE:                   32
 NUMBER OF PRIMITIVE AOS:         322
 NUMBER OF SYMMETRY AOS:          282
 NUMBER OF CONTRACTIONS:          230   ( 152A'  +  78A"  )
 NUMBER OF CORE ORBITALS:           4   (   4A'  +   0A"  )
 NUMBER OF VALENCE ORBITALS:       18   (  14A'  +   4A"  )


 NUCLEAR REPULSION ENERGY  102.49975829


 Eigenvalues of metric

         1 0.270E-03 0.293E-03 0.336E-03 0.340E-03 0.833E-03 0.864E-03 0.908E-03 0.153E-02
         2 0.308E-02 0.346E-02 0.535E-02 0.122E-01 0.131E-01 0.269E-01 0.294E-01 0.298E-01


 Contracted 2-electron integrals neglected if value below      1.0D-11
 AO integral compression algorithm  1   Integral accuracy      1.0D-11

     703.332 MB (compressed) written to integral file ( 42.4%)

     Node minimum: 229.900 MB, node maximum: 239.862 MB


 NUMBER OF SORTED TWO-ELECTRON INTEGRALS:   59950380.     BUFFER LENGTH:  32768
 NUMBER OF SEGMENTS:   4  SEGMENT LENGTH:   15995235      RECORD LENGTH: 524288

 Memory used in sort:      16.55 MW

 SORT1 READ   207531521. AND WROTE    53265898. INTEGRALS IN    155 RECORDS. CPU TIME:     3.15 SEC, REAL TIME:     3.67 SEC
 SORT2 READ   160371806. AND WROTE   179836431. INTEGRALS IN   2673 RECORDS. CPU TIME:     1.12 SEC, REAL TIME:     1.60 SEC

 Node minimum:    59940574.  Node maximum:    59950380. integrals

 OPERATOR DM      FOR CENTER  0  COORDINATES:    0.000000    0.000000    0.000000


 **********************************************************************************************************************************
 DATASETS  * FILE   NREC   LENGTH (MB)   RECORD NAMES
              1      18        3.74       500      610      700      900      950      970     1000      129      960     1100   
                                          VAR    BASINP    GEOM    SYMINP    ZMAT    AOBASIS   BASIS     P2S    ABASIS      S 
                                         1400     1410     1200     1210     1080     1600     1650     1700   
                                           T        V       H0       H01     AOSYM     SMH    MOLCAS    OPER   

 PROGRAMS   *        TOTAL       INT
 CPU TIMES  *         8.93      8.87
 REAL TIME  *        10.30 SEC
 DISK USED  *         2.60 GB      
 GA USED    *         0.00 MB       (max)       0.00 MB       (current)
 **********************************************************************************************************************************

1PROGRAM * RHF-SCF (CLOSED SHELL)       Authors: W. Meyer, H.-J. Werner


 NUMBER OF ELECTRONS:      16+   16-
 CONVERGENCE THRESHOLDS:    1.00E-05 (Density)    1.00E-07 (Energy)
 MAX. NUMBER OF ITERATIONS:       60
 INTERPOLATION TYPE:            DIIS
 INTERPOLATION STEPS:              2 (START)      1 (STEP)
 LEVEL SHIFTS:                  0.00 (CLOSED)  0.00 (OPEN) 



 Orbital guess generated from atomic densities. Full valence occupancy:   18   4

 Molecular orbital dump at record        2100.2

 Initial alpha occupancy:  13   3
 Initial beta  occupancy:  13   3
 Wave function symmetry:    1

 ITERATION    DDIFF          GRAD             ENERGY        2-EL.EN.            DIPOLE MOMENTS         DIIS
    1      0.000D+00      0.000D+00      -263.66806963    401.286398   -1.20300   -0.00011    0.00000    0
    2      0.000D+00      0.618D-02      -263.73178563    396.546605   -0.83300   -0.00005    0.00000    1
    3      0.994D-02      0.413D-02      -263.77212169    399.053814   -0.91041   -0.00004    0.00000    2
    4      0.404D-02      0.405D-03      -263.77262109    398.865877   -0.91098   -0.00005    0.00000    3
    5      0.489D-03      0.119D-03      -263.77267959    398.855058   -0.90632   -0.00005    0.00000    4
    6      0.183D-03      0.487D-04      -263.77268716    398.872123   -0.90708   -0.00005    0.00000    5
    7      0.615D-04      0.113D-04      -263.77268788    398.863527   -0.90670   -0.00005    0.00000    6
    8      0.199D-04      0.251D-05      -263.77268793    398.864909   -0.90673   -0.00005    0.00000    7
    9      0.529D-05      0.841D-06      -263.77268793    398.864672   -0.90671   -0.00005    0.00000    0

 Final occupancy:  13   3

 !RHF STATE 1.1 Energy               -263.772687931088
 Nuclear energy                       102.49975829
 One-electron energy                 -565.70478233
 Two-electron energy                  199.43233611
 Virial quotient                       -1.00183282
 !RHF STATE 1.1 Dipole moment          -0.90671042    -0.00004833     0.00000000
 Dipole moment /Debye                  -2.30447706    -0.00012283     0.00000000

 Orbital energies:

         1.1          2.1          3.1          4.1          5.1          6.1          7.1          8.1          9.1         10.1
    -20.633968   -20.633923   -20.576684   -11.444041    -1.511868    -1.459004    -1.362473    -0.783330    -0.727764    -0.725650

        11.1         12.1         13.1         14.1         15.1
     -0.696852    -0.594753    -0.526521     0.025921     0.047676

         1.2          2.2          3.2          4.2          5.2
     -0.696333    -0.526459    -0.520432     0.082574     0.168496


 **********************************************************************************************************************************
 DATASETS  * FILE   NREC   LENGTH (MB)   RECORD NAMES
              1      18        3.76       500      610      700      900      950      970     1000      129      960     1100   
                                          VAR    BASINP    GEOM    SYMINP    ZMAT    AOBASIS   BASIS     P2S    ABASIS      S 
                                         1400     1410     1200     1210     1080     1600     1650     1700   
                                           T        V       H0       H01     AOSYM     SMH    MOLCAS    OPER   

              2       3        0.96       700     1000     2100   
                                         GEOM     BASIS     RHF  

 PROGRAMS   *        TOTAL        HF       INT
 CPU TIMES  *        13.21      4.28      8.87
 REAL TIME  *        14.97 SEC
 DISK USED  *         2.63 GB      
 SF USED    *         0.12 MB      
 GA USED    *         0.00 MB       (max)       0.00 MB       (current)
 **********************************************************************************************************************************


1PROGRAM * CCSD (Closed-shell coupled cluster)     Authors: C. Hampel, H.-J. Werner, 1991, M. Deegan, P.J. Knowles, 1992

                                  CCSD-F12 implementation by  H.-J. Werner, 2007

                   Density fitting integral evaluation by F.R. Manby, 2003,2007, G. Knizia, 2010

 Basis set CC-PVTZ/JKFIT generated.      Number of basis functions:   376 
 Basis set AUG-CC-PVTZ/MP2FIT generated. Number of basis functions:   516 

 Convergence thresholds:  THRVAR = 1.00D-08  THRDEN = 1.00D-06

 CCSD(T)     terms to be evaluated (factor= 1.000)


 Number of core orbitals:           4 (   4   0 )
 Number of closed-shell orbitals:  12 (   9   3 )
 Number of external orbitals:     214 ( 139  75 )

 Molecular orbitals read from record     2100.2  Type=RHF/CANONICAL (state 1.1)

 MP2-F12 correlation treatment (H.-J. Werner, 2006)
 --------------------------------------------------

 Using MP2-F12 with ansatz 3C(FIX)

 Using projected zeroth-order Hamiltonian (+Z)

 FOCKRIB=T FOCKRIC=T FOCKRIP=T CABSP=T CABSA=T CABSK=T CABSF=T GBC=F EBC=F DMAT=T NOFIK=T NOPAO=1 SOLVE=-1  USEPAO=0
 EXCH_A= T EXCH_B= F EXCH_C= F EXCH_P= F
 
 Geminal basis:    OPTFULL  GEM_TYPE=SLATER  BETA=1.0  NGEM=6

 Optimizing Gaussian exponents for each gem_beta

 Geminal optimization for beta= 1.0000
 Weight function:   m=0, omega= 1.4646

 Augmented Hessian optimization of geminal fit. Trust ratio= 0.40000
 Convergence reached after   2 iterations. Final gradient= 8.24D-16, Step= 4.32D-06, Delta= 1.28D-09
 
 Alpha:                 0.19532     0.81920     2.85917     9.50073    35.69989   197.79328
 Coeff:                 0.27070     0.30552     0.18297     0.10986     0.06810     0.04224
 

 Symmetry turned off. Reference energy:       -263.772687931087

 All pairs explicitly correlated. Number of r12-pairs:           78
 
 AO(A)-basis ORBITAL           loaded. Number of functions:     230
 RI(R)-basis CC-PVTZ/JKFIT     loaded. Number of functions:     376
 DF-basis CC-PVTZ/JKFIT        loaded. Number of functions:     376

 Screening thresholds:   THRAO=  1.00D-10  THRMO=  1.00D-09  THRPROD=  1.00D-09
                         THRSW=  1.00D-05  THROV=  1.00D-12  THRF12=   1.00D-08

 CPU time for Fock operators                      0.94 sec
 
 Construction of ABS:
 Smallest eigenvalue of S          2.54E-04  (threshold= 1.00E-08)
 Ratio eigmin/eigmax               1.81E-06  (threshold= 1.00E-09)
 Smallest eigenvalue of S kept     2.54E-04  (threshold= 2.54E-04, 0 functions deleted, 376 kept)
 
 Construction of CABS:
 Smallest eigenvalue of S          2.27E-08  (threshold= 1.00E-08)
 Ratio eigmin/eigmax               2.27E-08  (threshold= 1.00E-09)
 Smallest eigenvalue of S kept     2.27E-08  (threshold= 2.27E-08, 0 functions deleted, 376 kept)
 
 CPU time for CABS singles                        0.16 sec

 CABS-singles contribution of  -0.01592340 patched into reference energy.
 New reference energy        -263.78861133
 
 AO(A)-basis ORBITAL           loaded. Number of functions:     230
 RI(R)-basis CC-PVTZ/JKFIT     loaded. Number of functions:     376
 DF-basis AUG-CC-PVTZ/MP2FIT   loaded. Number of functions:     516

 Screening thresholds:   THRAO=  1.00D-10  THRMO=  1.00D-09  THRPROD=  1.00D-09
                         THRSW=  1.00D-05  THROV=  1.00D-12  THRF12=   1.00D-08

 CPU time for 3-index integral evaluation         2.90 sec
 CPU time for first  half transformation          0.22 sec (13674.5 MFLOP/sec)
 CPU time for second half transformation          0.04 sec ( 2576.7 MFLOP/sec)
 CPU time for sorting                             0.16 sec
 CPU time for fitting                             0.07 sec (19900.7 MFLOP/sec)
 CPU time for tilde quantities                    0.05 sec (36977.6 MFLOP/sec)
 CPU time for assembly                            0.76 sec (30945.6 MFLOP/sec)
 CPU time for tranop_f12                          0.87 sec (34640.3 MFLOP/sec)
 CPU time for f12 integrals (total)               7.07 sec
 F12-matrices built in  3 passes.
 F12-matrices built in  3 passes.
 F12-matrices built in  3 passes.
 F12-matrices built in  3 passes.
 FC-matrix built in  3 passes.
 CPU time for f12 matrices (total)                0.49 sec

 Diagonal F12 approximation with fixed coefficients:  TSING= 0.500,  TTRIP= 0.250 (scaled by -1/beta)

 DF-MP2-F12 energy corrections:
 ------------------------------
 Approx.                                    Singlet             Triplet             Total
 DF-MP2-F12/3*C(DX,FIX)                -0.097360091829     -0.016961495015     -0.114321586844
 DF-MP2-F12/3*C(FIX)                   -0.079795279271     -0.013442168132     -0.093237447403
 DF-MP2-F12/3C(FIX)                    -0.080166055439     -0.013475248490     -0.093641303929

 DF-MP2-F12 correlation energies:
 --------------------------------
 Approx.                                    Singlet             Triplet             Ecorr            Total Energy
 DF-MP2                                -0.537745116110     -0.343881204450     -0.881626320560   -264.670237648185
 DF-MP2-F12/3*C(DX,FIX)                -0.635105207939     -0.360842699465     -0.995947907404   -264.784559235029
 DF-MP2-F12/3*C(FIX)                   -0.617540395381     -0.357323372582     -0.974863767963   -264.763475095588
 DF-MP2-F12/3C(FIX)                    -0.617911171549     -0.357356452940     -0.975267624489   -264.763878952114

 SCS-DF-MP2 energies (F_SING= 1.20000  F_TRIP= 0.62222  F_PARALLEL= 0.33333):
 ----------------------------------------------------------------------------
 SCS-DF-MP2                            -0.859264666545   -264.647875994170
 SCS-DF-MP2-F12/3*C(DX,FIX)            -0.986650595860   -264.775261923485
 SCS-DF-MP2-F12/3*C(FIX)               -0.963383017397   -264.751994345022
 SCS-DF-MP2-F12/3C(FIX)                -0.963848532132   -264.752459859757

 Symmetry restored.
 Symmetry transformation completed.

 Number of N-1 electron functions:              12
 Number of N-2 electron functions:              78
 Number of singly external CSFs:              1476
 Number of doubly external CSFs:           1686804
 Total number of CSFs:                     1688281

 Pair and operator lists are different

 Length of J-op  integral file:             466.42 MB
 Length of K-op  integral file:             526.62 MB
 Length of 3-ext integral record:             0.00 MB

 Memory could be reduced to 76.61 Mwords without degradation in triples

 Integral transformation finished. Total CPU:   4.28 sec, npass=  1  Memory used:  24.61 MW

 Reference energy:                   -263.78861133

 Adding F12 terms to K(Cij), methodcc=6,  factor=1.0

 ITER.      SQ.NORM     CORR.ENERGY   TOTAL ENERGY   ENERGY CHANGE        DEN1      VAR(S)    VAR(P)  DIIS     TIME
   1      1.20209958    -0.86356707  -264.65217840     0.01807373     0.04659208  0.72D-02  0.55D-02  1  1    16.09
   2      1.21638607    -0.85939713  -264.64800846     0.00416994    -0.02010618  0.88D-04  0.59D-03  2  2    18.97
   3      1.22175691    -0.85950585  -264.64811717    -0.00010871    -0.00236694  0.13D-03  0.32D-04  3  3    21.87
   4      1.22456912    -0.85937759  -264.64798892     0.00012825    -0.00141313  0.77D-05  0.40D-05  4  4    24.71
   5      1.22559836    -0.85934043  -264.64795176     0.00003717    -0.00036467  0.57D-06  0.28D-06  5  5    27.56
   6      1.22575894    -0.85931363  -264.64792496     0.00002680    -0.00000740  0.41D-07  0.24D-07  6  6    30.41
   7      1.22578851    -0.85931120  -264.64792253     0.00000243    -0.00000606  0.31D-08  0.40D-08  6  4    33.34
   8      1.22578900    -0.85931067  -264.64792200     0.00000053     0.00000186  0.41D-09  0.29D-09  6  1    36.55
   9      1.22578957    -0.85931074  -264.64792207    -0.00000007     0.00000061  0.32D-10  0.24D-10  6  2    39.87

 Norm of t1 vector:      0.10619159      S-energy:    -0.00000003      T1 diagnostic:  0.01532744
                                                                       D1 diagnostic:  0.04543570

 Adding energy correction from Wij-K(Fij), methodcc=6  factor=1.0
 
  CCSD correlation energy              -0.859310743928
  MP2-F12 correction (uncoupled)       -0.092472957720
  C*T doubles correction               -0.001475244492
  f12b correction                       0.015409828322


 Total CPU time for triples:     75.92 sec


 RESULTS
 =======

  Reference energy                   -263.772687931088
  F12 singles correction               -0.015923396537

 F12 singles corrections added to reference energy

  New reference energy               -263.788611327625

  F12a singlet correction              -0.080359888913
  F12a triplet correction              -0.013588313299
  F12a total correction                -0.093948202212

 F12a corrections for ansatz F12/3C(FIX) added to CCSD energy
 
  CCSD-F12a singlet pair energy        -0.641736235330
  CCSD-F12a triplet pair energy        -0.311522676407
  CCSD-F12a correlation energy         -0.953258946140

  Triples (T) contribution             -0.037794374448
  Total correlation energy             -0.991053320587

  CCSD-F12a total energy             -264.741870273765
  CCSD[T]-F12a energy                -264.782203477403
  CCSD-T-F12a energy                 -264.778732988886
 !CCSD(T)-F12a total energy          -264.779664648213

 F12b corrections for ansatz F12/3C(FIX) added to CCSD(T)-F12a energy

  CCSD-F12b singlet pair energy        -0.627554991982
  CCSD-F12b triplet pair energy        -0.310294091432
  CCSD-F12b correlation energy         -0.937849117817

  Triples (T) contribution             -0.037794374448
  Total correlation energy             -0.975643492265

  CCSD-F12b total energy             -264.726460445443
  CCSD[T]-F12b energy                -264.766793649080
  CCSD-T-F12b energy                 -264.763323160564
 !CCSD(T)-F12b total energy          -264.764254819890

 Timing summary (sec):

 STEP                 CPU(USER)    SYS     CPU(TOT)    WALL
 Transformation          4.32      0.55      4.87      4.86
 CCSD iterations        26.54      1.80     28.34     28.34
 Triples                75.92      1.80     77.72     77.69
 MP2-F12                 9.03      1.10     10.13     10.13
 F12b energy             2.17      0.07      2.24      2.25

 Program statistics:

 Available memory in ccsd:                99998934
 Min. memory needed in ccsd:               4458306
 Max. memory used in ccsd:                 5958390
 Max. memory used in cckext:               6352469 (10 integral passes)



 **********************************************************************************************************************************
 DATASETS  * FILE   NREC   LENGTH (MB)   RECORD NAMES
              1      20      269.66       500      610      700      900      950      970     1000      129      960     1100   
                                          VAR    BASINP    GEOM    SYMINP    ZMAT    AOBASIS   BASIS     P2S    ABASIS      S 
                                         1400     1410     1200     1210     1080     1600     1650     1700      960(1)  1380   
                                           T        V       H0       H01     AOSYM     SMH    MOLCAS    OPER    ABASIS    JKOP   

              2       5        1.55       700     1000     2100     7360     7350   
                                         GEOM     BASIS     RHF    F12ABS    EF12   

 PROGRAMS   *        TOTAL   CCSD(T)        HF       INT
 CPU TIMES  *       131.34    118.13      4.28      8.87
 REAL TIME  *       138.53 SEC
 DISK USED  *         3.07 GB      
 SF USED    *         1.53 GB      
 GA USED    *         2.40 MB       (max)       0.00 MB       (current)
 **********************************************************************************************************************************

     CCSD(T)-F12        HF-SCF  
   -264.76425482   -263.77268793
 **********************************************************************************************************************************
 Variable memory released
