
 Primary working directories    : /scratch/kee
 Secondary working directories  : /scratch/kee
 Wavefunction directory         : /home/kee/wfu/
 Main file repository           : /scratch/kee/

 ARCHNAME  : Linux/x86_64
 FC        : /opt/intel/composer_xe_2015.0.090/bin/intel64/ifort
 FCVERSION : 15.0.0
 BLASLIB   : -L/opt/intel/mkl/lib/intel64 -lmkl_intel_ilp64 -lmkl_sequential -lmkl_core
 id        : emory

 Nodes     nprocs
 node25       3
 Number of processes for MPI-2 version of Molpro:   nprocs(total)=    4   nprocs(compute)=    3   nprocs(helper)=    1
 ga_uses_ma=false, calling ma_init with nominal heap.
 GA-space will be limited to   8.0 MW (determined by -G option)

 Using customized tuning parameters: mindgm=7; mindgv=32; mindgc=1; mindgr=1; noblas=0; mincuda=1000; minvec=7
 default implementation of scratch files=sf  

 ***,co2h2o
 memory,100,m
 basis avtz
 geomtype = xyz
 geometry = {
 6
       0.00000000
 O     0.00032100    1.15989800    0.00000000
 O     0.00041400   -1.15989400    0.00000000
 O     1.91133426    1.39013437    0.49863985
 H     2.70288877    1.69909001    0.05629121
 H     2.22532007    0.91150662    1.26676208
 C     0.01953800    0.00000300    0.00000000
 }
 hf
 ccsd(t)-f12
 ---

 Variables initialized (665), CPU time= 0.00 sec
 Commands  initialized (462), CPU time= 0.01 sec, 486 directives.
 Default parameters read. Elapsed time= 0.04 sec

 Checking input...
 Passed
1


                                         ***  PROGRAM SYSTEM MOLPRO  ***
                         Copyright, University College Cardiff Consultants Limited, 2008

                                    Version 2010.1 linked 9 Dec 2014 15:06:28 


 **********************************************************************************************************************************
 LABEL *   co2h2o                                                                        
 Linux-2.6.32-504.el6.x86_64/node25(x86_64) 64 bit mpp version                           DATE: 15-Dec-16          TIME: 01:24:35  
 **********************************************************************************************************************************

 Patch level:      19
 **********************************************************************************************************************************

 Variable memory set to  100000000 words,  buffer space   230000 words

 SETTING BASIS          =    AVTZ
 SETTING GEOMTYPE       =    XYZ

Geometry recognized as XYZ



 Recomputing integrals since basis changed


 Using spherical harmonics

 Library entry O      S aug-cc-pVTZ          selected for orbital group  1
 Library entry O      P aug-cc-pVTZ          selected for orbital group  1
 Library entry O      D aug-cc-pVTZ          selected for orbital group  1
 Library entry O      F aug-cc-pVTZ          selected for orbital group  1
 Library entry H      S aug-cc-pVTZ          selected for orbital group  2
 Library entry H      P aug-cc-pVTZ          selected for orbital group  2
 Library entry H      D aug-cc-pVTZ          selected for orbital group  2
 Library entry C      S aug-cc-pVTZ          selected for orbital group  3
 Library entry C      P aug-cc-pVTZ          selected for orbital group  3
 Library entry C      D aug-cc-pVTZ          selected for orbital group  3
 Library entry C      F aug-cc-pVTZ          selected for orbital group  3

1PROGRAM * SEWARD (Integral evaluation for generally contracted gaussian basis sets)     Author: Roland Lindh, 1990

 Geometry written to block  1 of record 700


 Point group  C1  



 ATOMIC COORDINATES

 NR  ATOM    CHARGE       X              Y              Z

   1  O       8.00    0.000606602    2.191889560    0.000000000
   2  O       8.00    0.000782347   -2.191882001    0.000000000
   3  O       8.00    3.611898297    2.626973245    0.942292755
   4  H       1.00    5.107719539    3.210814792    0.106374971
   5  H       1.00    4.205245487    1.722497879    2.393833405
   6  C       6.00    0.036921469    0.000005669    0.000000000

 Bond lengths in Bohr (Angstrom)

 1-6  2.192184701  2-6  2.192185575  3-4  1.810279172  3-5  1.810278110
     (1.160054182)     (1.160054644)     (0.957958480)     (0.957957918)

 Bond angles

  1-6-2  178.10622893   4-3-5  105.10354942

 NUCLEAR CHARGE:                   32
 NUMBER OF PRIMITIVE AOS:         322
 NUMBER OF SYMMETRY AOS:          282
 NUMBER OF CONTRACTIONS:          230   ( 230A   )
 NUMBER OF CORE ORBITALS:           4   (   4A   )
 NUMBER OF VALENCE ORBITALS:       18   (  18A   )


 NUCLEAR REPULSION ENERGY  113.41177041


 Eigenvalues of metric

         1 0.152E-03 0.259E-03 0.290E-03 0.303E-03 0.479E-03 0.711E-03 0.839E-03 0.119E-02


 Contracted 2-electron integrals neglected if value below      1.0D-11
 AO integral compression algorithm  1   Integral accuracy      1.0D-11

     1443.365 MB (compressed) written to integral file ( 43.9%)

     Node minimum: 465.830 MB, node maximum: 503.841 MB


 NUMBER OF SORTED TWO-ELECTRON INTEGRALS:  117629820.     BUFFER LENGTH:  32768
 NUMBER OF SEGMENTS:   8  SEGMENT LENGTH:   15997437      RECORD LENGTH: 524288

 Memory used in sort:      16.55 MW

 SORT1 READ   410697961. AND WROTE   105273613. INTEGRALS IN    306 RECORDS. CPU TIME:     5.82 SEC, REAL TIME:     6.97 SEC
 SORT2 READ   315003248. AND WROTE   352862895. INTEGRALS IN   5766 RECORDS. CPU TIME:     1.79 SEC, REAL TIME:     2.62 SEC

 Node minimum:   117612110.  Node maximum:   117629820. integrals

 OPERATOR DM      FOR CENTER  0  COORDINATES:    0.000000    0.000000    0.000000


 **********************************************************************************************************************************
 DATASETS  * FILE   NREC   LENGTH (MB)   RECORD NAMES
              1      18        4.62       500      610      700      900      950      970     1000      129      960     1100   
                                          VAR    BASINP    GEOM    SYMINP    ZMAT    AOBASIS   BASIS     P2S    ABASIS      S 
                                         1400     1410     1200     1210     1080     1600     1650     1700   
                                           T        V       H0       H01     AOSYM     SMH    MOLCAS    OPER   

 PROGRAMS   *        TOTAL       INT
 CPU TIMES  *        13.07     13.00
 REAL TIME  *        15.48 SEC
 DISK USED  *         5.19 GB      
 GA USED    *         0.00 MB       (max)       0.00 MB       (current)
 **********************************************************************************************************************************

1PROGRAM * RHF-SCF (CLOSED SHELL)       Authors: W. Meyer, H.-J. Werner


 NUMBER OF ELECTRONS:      16+   16-    SPACE SYMMETRY=1    SPIN SYMMETRY=Singlet 
 CONVERGENCE THRESHOLDS:    1.00E-05 (Density)    1.00E-07 (Energy)
 MAX. NUMBER OF ITERATIONS:       60
 INTERPOLATION TYPE:            DIIS
 INTERPOLATION STEPS:              2 (START)      1 (STEP)
 LEVEL SHIFTS:                  0.00 (CLOSED)  0.00 (OPEN) 



 Orbital guess generated from atomic densities. Full valence occupancy:   22

 Molecular orbital dump at record        2100.2

 ITERATION    DDIFF          GRAD             ENERGY        2-EL.EN.            DIPOLE MOMENTS         DIIS
    1      0.000D+00      0.000D+00      -263.60334880    424.125466    1.15972   -0.11242    0.32514    0
    2      0.000D+00      0.479D-02      -263.66532700    418.279873    0.75442    0.33593    0.18437    1
    3      0.776D-02      0.339D-02      -263.71504186    421.287839    0.84928    0.06780    0.21557    2
    4      0.329D-02      0.347D-03      -263.71563587    421.089215    0.84526    0.12756    0.21455    3
    5      0.437D-03      0.154D-03      -263.71576178    421.078588    0.84207    0.09468    0.21317    4
    6      0.186D-03      0.516D-04      -263.71577833    421.086589    0.84103    0.10419    0.21261    5
    7      0.611D-04      0.126D-04      -263.71577969    421.084766    0.84113    0.10301    0.21263    6
    8      0.208D-04      0.439D-05      -263.71577984    421.082035    0.84101    0.10326    0.21259    7
    9      0.597D-05      0.127D-05      -263.71577986    421.083108    0.84104    0.10324    0.21261    8
   10      0.269D-05      0.598D-06      -263.71577987    421.082819    0.84102    0.10325    0.21261    0

 Final occupancy:  16

 !RHF STATE 1.1 Energy               -263.715779868026
 Nuclear energy                       113.41177041
 One-electron energy                 -587.66895991
 Two-electron energy                  210.54140964
 Virial quotient                       -1.00027311
 !RHF STATE 1.1 Dipole moment           0.84102317     0.10324818     0.21260686
 Dipole moment /Debye                   2.13752767     0.26241351     0.54035735

 Orbital energies:

         1.1          2.1          3.1          4.1          5.1          6.1          7.1          8.1          9.1         10.1
    -20.627529   -20.612219   -20.564619   -11.429238    -1.506710    -1.453832    -1.362509    -0.778468    -0.738521    -0.724402

        11.1         12.1         13.1         14.1         15.1         16.1         17.1         18.1
     -0.703955    -0.686367    -0.598015    -0.527264    -0.510556    -0.468867     0.024565     0.045772


 **********************************************************************************************************************************
 DATASETS  * FILE   NREC   LENGTH (MB)   RECORD NAMES
              1      18        4.62       500      610      700      900      950      970     1000      129      960     1100   
                                          VAR    BASINP    GEOM    SYMINP    ZMAT    AOBASIS   BASIS     P2S    ABASIS      S 
                                         1400     1410     1200     1210     1080     1600     1650     1700   
                                           T        V       H0       H01     AOSYM     SMH    MOLCAS    OPER   

              2       3        1.44       700     1000     2100   
                                         GEOM     BASIS     RHF  

 PROGRAMS   *        TOTAL        HF       INT
 CPU TIMES  *        26.19     13.12     13.00
 REAL TIME  *        29.55 SEC
 DISK USED  *         5.22 GB      
 SF USED    *         0.21 MB      
 GA USED    *         0.00 MB       (max)       0.00 MB       (current)
 **********************************************************************************************************************************


1PROGRAM * CCSD (Closed-shell coupled cluster)     Authors: C. Hampel, H.-J. Werner, 1991, M. Deegan, P.J. Knowles, 1992

                                  CCSD-F12 implementation by  H.-J. Werner, 2007

                   Density fitting integral evaluation by F.R. Manby, 2003,2007, G. Knizia, 2010

 Basis set CC-PVTZ/JKFIT generated.      Number of basis functions:   376 
 Basis set AUG-CC-PVTZ/MP2FIT generated. Number of basis functions:   516 

 Convergence thresholds:  THRVAR = 1.00D-08  THRDEN = 1.00D-06

 CCSD(T)     terms to be evaluated (factor= 1.000)


 Number of core orbitals:           4 (   4 )
 Number of closed-shell orbitals:  12 (  12 )
 Number of external orbitals:     214 ( 214 )

 Molecular orbitals read from record     2100.2  Type=RHF/CANONICAL (state 1.1)

 MP2-F12 correlation treatment (H.-J. Werner, 2006)
 --------------------------------------------------

 Using MP2-F12 with ansatz 3C(FIX)

 Using projected zeroth-order Hamiltonian (+Z)

 FOCKRIB=T FOCKRIC=T FOCKRIP=T CABSP=T CABSA=T CABSK=T CABSF=T GBC=F EBC=F DMAT=T NOFIK=T NOPAO=1 SOLVE=-1  USEPAO=0
 EXCH_A= T EXCH_B= F EXCH_C= F EXCH_P= F
 
 Geminal basis:    OPTFULL  GEM_TYPE=SLATER  BETA=1.0  NGEM=6

 Optimizing Gaussian exponents for each gem_beta

 Geminal optimization for beta= 1.0000
 Weight function:   m=0, omega= 1.4646

 Augmented Hessian optimization of geminal fit. Trust ratio= 0.40000
 Convergence reached after   2 iterations. Final gradient= 8.24D-16, Step= 4.32D-06, Delta= 1.28D-09
 
 Alpha:                 0.19532     0.81920     2.85917     9.50073    35.69989   197.79328
 Coeff:                 0.27070     0.30552     0.18297     0.10986     0.06810     0.04224
 

 All pairs explicitly correlated. Number of r12-pairs:           78
 
 AO(A)-basis ORBITAL           loaded. Number of functions:     230
 RI(R)-basis CC-PVTZ/JKFIT     loaded. Number of functions:     376
 DF-basis CC-PVTZ/JKFIT        loaded. Number of functions:     376

 Screening thresholds:   THRAO=  1.00D-10  THRMO=  1.00D-09  THRPROD=  1.00D-09
                         THRSW=  1.00D-05  THROV=  1.00D-12  THRF12=   1.00D-08

 CPU time for Fock operators                      1.10 sec
 
 Construction of ABS:
 Smallest eigenvalue of S          2.22E-04  (threshold= 1.00E-08)
 Ratio eigmin/eigmax               1.58E-06  (threshold= 1.00E-09)
 Smallest eigenvalue of S kept     2.22E-04  (threshold= 2.22E-04, 0 functions deleted, 376 kept)
 
 Construction of CABS:
 Smallest eigenvalue of S          2.16E-08  (threshold= 1.00E-08)
 Ratio eigmin/eigmax               2.16E-08  (threshold= 1.00E-09)
 Smallest eigenvalue of S kept     2.16E-08  (threshold= 2.16E-08, 0 functions deleted, 376 kept)
 
 CPU time for CABS singles                        0.17 sec

 CABS-singles contribution of  -0.01591538 patched into reference energy.
 New reference energy        -263.73169525
 
 AO(A)-basis ORBITAL           loaded. Number of functions:     230
 RI(R)-basis CC-PVTZ/JKFIT     loaded. Number of functions:     376
 DF-basis AUG-CC-PVTZ/MP2FIT   loaded. Number of functions:     516

 Screening thresholds:   THRAO=  1.00D-10  THRMO=  1.00D-09  THRPROD=  1.00D-09
                         THRSW=  1.00D-05  THROV=  1.00D-12  THRF12=   1.00D-08

 CPU time for 3-index integral evaluation         3.25 sec
 CPU time for first  half transformation          0.31 sec ( 9630.3 MFLOP/sec)
 CPU time for second half transformation          0.02 sec ( 5542.1 MFLOP/sec)
 CPU time for sorting                             0.18 sec
 CPU time for fitting                             0.06 sec (23217.5 MFLOP/sec)
 CPU time for tilde quantities                    0.08 sec (23111.0 MFLOP/sec)
 CPU time for assembly                            0.87 sec (26892.3 MFLOP/sec)
 CPU time for tranop_f12                          0.91 sec (32594.0 MFLOP/sec)
 CPU time for f12 integrals (total)               7.87 sec
 F12-matrices built in  3 passes.
 F12-matrices built in  3 passes.
 F12-matrices built in  3 passes.
 F12-matrices built in  3 passes.
 FC-matrix built in  3 passes.
 CPU time for f12 matrices (total)                0.58 sec

 Diagonal F12 approximation with fixed coefficients:  TSING= 0.500,  TTRIP= 0.250 (scaled by -1/beta)

 DF-MP2-F12 energy corrections:
 ------------------------------
 Approx.                                    Singlet             Triplet             Total
 DF-MP2-F12/3*C(DX,FIX)                -0.097679701914     -0.017285635715     -0.114965337629
 DF-MP2-F12/3*C(FIX)                   -0.079808607485     -0.013726692489     -0.093535299974
 DF-MP2-F12/3C(FIX)                    -0.080196703583     -0.013785241037     -0.093981944620

 DF-MP2-F12 correlation energies:
 --------------------------------
 Approx.                                    Singlet             Triplet             Ecorr            Total Energy
 DF-MP2                                -0.541617156430     -0.351373598209     -0.892990754639   -264.624686002704
 DF-MP2-F12/3*C(DX,FIX)                -0.639296858344     -0.368659233924     -1.007956092269   -264.739651340334
 DF-MP2-F12/3*C(FIX)                   -0.621425763914     -0.365100290698     -0.986526054613   -264.718221302678
 DF-MP2-F12/3C(FIX)                    -0.621813860013     -0.365158839247     -0.986972699259   -264.718667947324

 SCS-DF-MP2 energies (F_SING= 1.20000  F_TRIP= 0.62222  F_PARALLEL= 0.33333):
 ----------------------------------------------------------------------------
 SCS-DF-MP2                            -0.868573048824   -264.600268296889
 SCS-DF-MP2-F12/3*C(DX,FIX)            -0.996544197788   -264.728239445853
 SCS-DF-MP2-F12/3*C(FIX)               -0.972884430910   -264.704579678975
 SCS-DF-MP2-F12/3C(FIX)                -0.973386576435   -264.705081824500
 Symmetry transformation completed.

 Number of N-1 electron functions:              12
 Number of N-2 electron functions:              78
 Number of singly external CSFs:              2568
 Number of doubly external CSFs:           3298596
 Total number of CSFs:                     3301165

 Pair and operator lists are different

 Length of J-op  integral file:             474.22 MB
 Length of K-op  integral file:             572.29 MB
 Length of 3-ext integral record:             0.00 MB

 For full I/O caching in triples, increase memory by 50.81 Mwords to 151.09 Mwords.

 Integral transformation finished. Total CPU:  14.33 sec, npass=  1  Memory used:  87.46 MW

 Reference energy:                   -263.73169525

 Adding F12 terms to K(Cij), methodcc=6,  factor=1.0

 ITER.      SQ.NORM     CORR.ENERGY   TOTAL ENERGY   ENERGY CHANGE        DEN1      VAR(S)    VAR(P)  DIIS     TIME
   1      1.20368630    -0.87279452  -264.60448977     0.02019830     0.04993539  0.76D-02  0.59D-02  1  1    34.51
   2      1.21857667    -0.86824362  -264.59993887     0.00455089    -0.02101529  0.87D-04  0.62D-03  2  2    44.52
   3      1.22398241    -0.86835237  -264.60004762    -0.00010875    -0.00219511  0.15D-03  0.34D-04  3  3    54.54
   4      1.22694737    -0.86820486  -264.59990010     0.00014751    -0.00145079  0.96D-05  0.46D-05  4  4    64.59
   5      1.22811073    -0.86816560  -264.59986085     0.00003925    -0.00040037  0.98D-06  0.36D-06  5  5    74.61
   6      1.22830509    -0.86813710  -264.59983235     0.00002851    -0.00000841  0.11D-06  0.49D-07  6  6    84.53
   7      1.22835306    -0.86813275  -264.59982800     0.00000435    -0.00000773  0.27D-07  0.83D-08  6  2    95.04
   8      1.22836032    -0.86813212  -264.59982736     0.00000063     0.00000104  0.44D-08  0.12D-08  6  1   105.82
   9      1.22836105    -0.86813251  -264.59982776    -0.00000040     0.00000192  0.81D-09  0.20D-09  6  4   116.64

 Norm of t1 vector:      0.10933936      S-energy:    -0.00000002      T1 diagnostic:  0.01578178
                                                                       D1 diagnostic:  0.04817390

 Adding energy correction from Wij-K(Fij), methodcc=6  factor=1.0
 
  CCSD correlation energy              -0.868132514550
  MP2-F12 correction (uncoupled)       -0.092804701441
  C*T doubles correction               -0.001500846518
  f12b correction                       0.015490062982


 Total CPU time for triples:    227.27 sec


 RESULTS
 =======

  Reference energy                   -263.715779868026
  F12 singles correction               -0.015915380039

 F12 singles corrections added to reference energy

  New reference energy               -263.731695248065

  F12a singlet correction              -0.080419276043
  F12a triplet correction              -0.013886271916
  F12a total correction                -0.094305547959

 F12a corrections for ansatz F12/3C(FIX) added to CCSD energy
 
  CCSD-F12a singlet pair energy        -0.644447099305
  CCSD-F12a triplet pair energy        -0.317990941845
  CCSD-F12a correlation energy         -0.962438062509

  Triples (T) contribution             -0.039223491921
  Total correlation energy             -1.001661554431

  CCSD-F12a total energy             -264.694133310575
  CCSD[T]-F12a energy                -264.736053042810
  CCSD-T-F12a energy                 -264.732399377359
 !CCSD(T)-F12a total energy          -264.733356802496

 F12b corrections for ansatz F12/3C(FIX) added to CCSD(T)-F12a energy

  CCSD-F12b singlet pair energy        -0.630223776476
  CCSD-F12b triplet pair energy        -0.316724201693
  CCSD-F12b correlation energy         -0.946947999528

  Triples (T) contribution             -0.039223491921
  Total correlation energy             -0.986171491449

  CCSD-F12b total energy             -264.678643247593
  CCSD[T]-F12b energy                -264.720562979828
  CCSD-T-F12b energy                 -264.716909314377
 !CCSD(T)-F12b total energy          -264.717866739514

 Timing summary (sec):

 STEP                 CPU(USER)    SYS     CPU(TOT)    WALL
 Transformation         14.44      1.19     15.63     16.05
 CCSD iterations        91.86      4.03     95.89     96.81
 Triples               227.27      3.40    230.67    230.56
 MP2-F12                10.36      1.31     11.67     12.41
 F12b energy             7.48      0.14      7.62      7.62

 Program statistics:

 Available memory in ccsd:                99998934
 Min. memory needed in ccsd:               8644845
 Max. memory used in ccsd:                11598633
 Max. memory used in cckext:               8768967 (10 integral passes)



 **********************************************************************************************************************************
 DATASETS  * FILE   NREC   LENGTH (MB)   RECORD NAMES
              1      20      527.84       500      610      700      900      950      970     1000      129      960     1100   
                                          VAR    BASINP    GEOM    SYMINP    ZMAT    AOBASIS   BASIS     P2S    ABASIS      S 
                                         1400     1410     1200     1210     1080     1600     1650     1700      960(1)  1380   
                                           T        V       H0       H01     AOSYM     SMH    MOLCAS    OPER    ABASIS    JKOP   

              2       5        2.50       700     1000     2100     7360     7350   
                                         GEOM     BASIS     RHF    F12ABS    EF12   

 PROGRAMS   *        TOTAL   CCSD(T)        HF       INT
 CPU TIMES  *       377.94    351.75     13.12     13.00
 REAL TIME  *       393.40 SEC
 DISK USED  *         6.09 GB      
 SF USED    *         1.91 GB      
 GA USED    *         2.40 MB       (max)       0.00 MB       (current)
 **********************************************************************************************************************************

     CCSD(T)-F12        HF-SCF  
   -264.71786674   -263.71577987
 **********************************************************************************************************************************
 Variable memory released
