
 Primary working directories    : /scratch/kee
 Secondary working directories  : /scratch/kee
 Wavefunction directory         : /home/kee/wfu/
 Main file repository           : /scratch/kee/

 ARCHNAME  : Linux/x86_64
 FC        : /opt/intel/composer_xe_2015.0.090/bin/intel64/ifort
 FCVERSION : 15.0.0
 BLASLIB   : -L/opt/intel/mkl/lib/intel64 -lmkl_intel_ilp64 -lmkl_sequential -lmkl_core
 id        : emory

 Nodes     nprocs
 node25       3
 Number of processes for MPI-2 version of Molpro:   nprocs(total)=    4   nprocs(compute)=    3   nprocs(helper)=    1
 ga_uses_ma=false, calling ma_init with nominal heap.
 GA-space will be limited to   8.0 MW (determined by -G option)

 Using customized tuning parameters: mindgm=7; mindgv=32; mindgc=1; mindgr=1; noblas=0; mincuda=1000; minvec=7
 default implementation of scratch files=sf  

 ***,co2h2o
 memory,100,m
 basis avtz
 geomtype = xyz
 geometry = {
 6
       0.00000000
 O     0.00032100    1.15989800    0.00000000
 O     0.00041400   -1.15989400    0.00000000
 O     1.83250941    1.33221223    0.47786319
 H     2.62406393    1.64116787    0.03551455
 H     2.14649523    0.85358448    1.24598542
 C     0.01953800    0.00000300    0.00000000
 }
 hf
 ccsd(t)-f12
 ---

 Variables initialized (665), CPU time= 0.00 sec
 Commands  initialized (462), CPU time= 0.01 sec, 486 directives.
 Default parameters read. Elapsed time= 0.03 sec

 Checking input...
 Passed
1


                                         ***  PROGRAM SYSTEM MOLPRO  ***
                         Copyright, University College Cardiff Consultants Limited, 2008

                                    Version 2010.1 linked 9 Dec 2014 15:06:28 


 **********************************************************************************************************************************
 LABEL *   co2h2o                                                                        
 Linux-2.6.32-504.el6.x86_64/node25(x86_64) 64 bit mpp version                           DATE: 15-Dec-16          TIME: 01:10:44  
 **********************************************************************************************************************************

 Patch level:      19
 **********************************************************************************************************************************

 Variable memory set to  100000000 words,  buffer space   230000 words

 SETTING BASIS          =    AVTZ
 SETTING GEOMTYPE       =    XYZ

Geometry recognized as XYZ



 Recomputing integrals since basis changed


 Using spherical harmonics

 Library entry O      S aug-cc-pVTZ          selected for orbital group  1
 Library entry O      P aug-cc-pVTZ          selected for orbital group  1
 Library entry O      D aug-cc-pVTZ          selected for orbital group  1
 Library entry O      F aug-cc-pVTZ          selected for orbital group  1
 Library entry H      S aug-cc-pVTZ          selected for orbital group  2
 Library entry H      P aug-cc-pVTZ          selected for orbital group  2
 Library entry H      D aug-cc-pVTZ          selected for orbital group  2
 Library entry C      S aug-cc-pVTZ          selected for orbital group  3
 Library entry C      P aug-cc-pVTZ          selected for orbital group  3
 Library entry C      D aug-cc-pVTZ          selected for orbital group  3
 Library entry C      F aug-cc-pVTZ          selected for orbital group  3

1PROGRAM * SEWARD (Integral evaluation for generally contracted gaussian basis sets)     Author: Roland Lindh, 1990

 Geometry written to block  1 of record 700


 Point group  C1  



 ATOMIC COORDINATES

 NR  ATOM    CHARGE       X              Y              Z

   1  O       8.00    0.000606602    2.191889560    0.000000000
   2  O       8.00    0.000782347   -2.191882001    0.000000000
   3  O       8.00    3.462940918    2.517516264    0.903030557
   4  H       1.00    4.958762179    3.101357810    0.067112773
   5  H       1.00    4.056288127    1.613040897    2.354571208
   6  C       6.00    0.036921469    0.000005669    0.000000000

 Bond lengths in Bohr (Angstrom)

 1-6  2.192184701  2-6  2.192185575  3-4  1.810279188  3-5  1.810278116
     (1.160054182)     (1.160054644)     (0.957958488)     (0.957957921)

 Bond angles

  1-6-2  178.10622893   4-3-5  105.10354852

 NUCLEAR CHARGE:                   32
 NUMBER OF PRIMITIVE AOS:         322
 NUMBER OF SYMMETRY AOS:          282
 NUMBER OF CONTRACTIONS:          230   ( 230A   )
 NUMBER OF CORE ORBITALS:           4   (   4A   )
 NUMBER OF VALENCE ORBITALS:       18   (  18A   )


 NUCLEAR REPULSION ENERGY  115.21104291


 Eigenvalues of metric

         1 0.136E-03 0.247E-03 0.277E-03 0.295E-03 0.440E-03 0.696E-03 0.808E-03 0.976E-03


 Contracted 2-electron integrals neglected if value below      1.0D-11
 AO integral compression algorithm  1   Integral accuracy      1.0D-11

     1459.618 MB (compressed) written to integral file ( 44.4%)

     Node minimum: 469.762 MB, node maximum: 502.792 MB


 NUMBER OF SORTED TWO-ELECTRON INTEGRALS:  117629820.     BUFFER LENGTH:  32768
 NUMBER OF SEGMENTS:   8  SEGMENT LENGTH:   15997437      RECORD LENGTH: 524288

 Memory used in sort:      16.55 MW

 SORT1 READ   410697961. AND WROTE   105843114. INTEGRALS IN    307 RECORDS. CPU TIME:     5.90 SEC, REAL TIME:     6.95 SEC
 SORT2 READ   316737679. AND WROTE   352862895. INTEGRALS IN   5574 RECORDS. CPU TIME:     1.78 SEC, REAL TIME:     2.52 SEC

 Node minimum:   117612110.  Node maximum:   117629820. integrals

 OPERATOR DM      FOR CENTER  0  COORDINATES:    0.000000    0.000000    0.000000


 **********************************************************************************************************************************
 DATASETS  * FILE   NREC   LENGTH (MB)   RECORD NAMES
              1      18        4.62       500      610      700      900      950      970     1000      129      960     1100   
                                          VAR    BASINP    GEOM    SYMINP    ZMAT    AOBASIS   BASIS     P2S    ABASIS      S 
                                         1400     1410     1200     1210     1080     1600     1650     1700   
                                           T        V       H0       H01     AOSYM     SMH    MOLCAS    OPER   

 PROGRAMS   *        TOTAL       INT
 CPU TIMES  *        13.51     13.44
 REAL TIME  *        15.88 SEC
 DISK USED  *         5.22 GB      
 GA USED    *         0.00 MB       (max)       0.00 MB       (current)
 **********************************************************************************************************************************

1PROGRAM * RHF-SCF (CLOSED SHELL)       Authors: W. Meyer, H.-J. Werner


 NUMBER OF ELECTRONS:      16+   16-    SPACE SYMMETRY=1    SPIN SYMMETRY=Singlet 
 CONVERGENCE THRESHOLDS:    1.00E-05 (Density)    1.00E-07 (Energy)
 MAX. NUMBER OF ITERATIONS:       60
 INTERPOLATION TYPE:            DIIS
 INTERPOLATION STEPS:              2 (START)      1 (STEP)
 LEVEL SHIFTS:                  0.00 (CLOSED)  0.00 (OPEN) 



 Orbital guess generated from atomic densities. Full valence occupancy:   22

 Molecular orbital dump at record        2100.2

 ITERATION    DDIFF          GRAD             ENERGY        2-EL.EN.            DIPOLE MOMENTS         DIIS
    1      0.000D+00      0.000D+00      -263.58308911    427.818097    1.16952   -0.09631    0.32907    0
    2      0.000D+00      0.480D-02      -263.64378463    421.811890    0.76577    0.38041    0.18484    1
    3      0.781D-02      0.343D-02      -263.69469869    424.901047    0.85622    0.08230    0.21605    2
    4      0.334D-02      0.361D-03      -263.69533263    424.698697    0.85126    0.14962    0.21481    3
    5      0.457D-03      0.167D-03      -263.69547921    424.688688    0.84818    0.11389    0.21343    4
    6      0.195D-03      0.512D-04      -263.69549630    424.695435    0.84702    0.12298    0.21278    5
    7      0.626D-04      0.129D-04      -263.69549776    424.693963    0.84718    0.12188    0.21282    6
    8      0.216D-04      0.455D-05      -263.69549793    424.691085    0.84707    0.12208    0.21279    7
    9      0.630D-05      0.138D-05      -263.69549796    424.692238    0.84711    0.12207    0.21281    8
   10      0.306D-05      0.702D-06      -263.69549797    424.691905    0.84710    0.12207    0.21281    0

 Final occupancy:  16

 !RHF STATE 1.1 Energy               -263.695497967052
 Nuclear energy                       115.21104291
 One-electron energy                 -591.25249360
 Two-electron energy                  212.34595272
 Virial quotient                       -0.99980816
 !RHF STATE 1.1 Dipole moment           0.84709537     0.12207080     0.21280990
 Dipole moment /Debye                   2.15296066     0.31025270     0.54087338

 Orbital energies:

         1.1          2.1          3.1          4.1          5.1          6.1          7.1          8.1          9.1         10.1
    -20.625959   -20.608230   -20.563662   -11.426814    -1.506880    -1.454554    -1.363460    -0.779239    -0.744634    -0.727105

        11.1         12.1         13.1         14.1         15.1         16.1         17.1         18.1
     -0.706012    -0.683908    -0.598890    -0.528998    -0.508142    -0.453807     0.024376     0.045628


 **********************************************************************************************************************************
 DATASETS  * FILE   NREC   LENGTH (MB)   RECORD NAMES
              1      18        4.62       500      610      700      900      950      970     1000      129      960     1100   
                                          VAR    BASINP    GEOM    SYMINP    ZMAT    AOBASIS   BASIS     P2S    ABASIS      S 
                                         1400     1410     1200     1210     1080     1600     1650     1700   
                                           T        V       H0       H01     AOSYM     SMH    MOLCAS    OPER   

              2       3        1.44       700     1000     2100   
                                         GEOM     BASIS     RHF  

 PROGRAMS   *        TOTAL        HF       INT
 CPU TIMES  *        26.65     13.14     13.44
 REAL TIME  *        29.78 SEC
 DISK USED  *         5.25 GB      
 SF USED    *         0.21 MB      
 GA USED    *         0.00 MB       (max)       0.00 MB       (current)
 **********************************************************************************************************************************


1PROGRAM * CCSD (Closed-shell coupled cluster)     Authors: C. Hampel, H.-J. Werner, 1991, M. Deegan, P.J. Knowles, 1992

                                  CCSD-F12 implementation by  H.-J. Werner, 2007

                   Density fitting integral evaluation by F.R. Manby, 2003,2007, G. Knizia, 2010

 Basis set CC-PVTZ/JKFIT generated.      Number of basis functions:   376 
 Basis set AUG-CC-PVTZ/MP2FIT generated. Number of basis functions:   516 

 Convergence thresholds:  THRVAR = 1.00D-08  THRDEN = 1.00D-06

 CCSD(T)     terms to be evaluated (factor= 1.000)


 Number of core orbitals:           4 (   4 )
 Number of closed-shell orbitals:  12 (  12 )
 Number of external orbitals:     214 ( 214 )

 Molecular orbitals read from record     2100.2  Type=RHF/CANONICAL (state 1.1)

 MP2-F12 correlation treatment (H.-J. Werner, 2006)
 --------------------------------------------------

 Using MP2-F12 with ansatz 3C(FIX)

 Using projected zeroth-order Hamiltonian (+Z)

 FOCKRIB=T FOCKRIC=T FOCKRIP=T CABSP=T CABSA=T CABSK=T CABSF=T GBC=F EBC=F DMAT=T NOFIK=T NOPAO=1 SOLVE=-1  USEPAO=0
 EXCH_A= T EXCH_B= F EXCH_C= F EXCH_P= F
 
 Geminal basis:    OPTFULL  GEM_TYPE=SLATER  BETA=1.0  NGEM=6

 Optimizing Gaussian exponents for each gem_beta

 Geminal optimization for beta= 1.0000
 Weight function:   m=0, omega= 1.4646

 Augmented Hessian optimization of geminal fit. Trust ratio= 0.40000
 Convergence reached after   2 iterations. Final gradient= 8.24D-16, Step= 4.32D-06, Delta= 1.28D-09
 
 Alpha:                 0.19532     0.81920     2.85917     9.50073    35.69989   197.79328
 Coeff:                 0.27070     0.30552     0.18297     0.10986     0.06810     0.04224
 

 All pairs explicitly correlated. Number of r12-pairs:           78
 
 AO(A)-basis ORBITAL           loaded. Number of functions:     230
 RI(R)-basis CC-PVTZ/JKFIT     loaded. Number of functions:     376
 DF-basis CC-PVTZ/JKFIT        loaded. Number of functions:     376

 Screening thresholds:   THRAO=  1.00D-10  THRMO=  1.00D-09  THRPROD=  1.00D-09
                         THRSW=  1.00D-05  THROV=  1.00D-12  THRF12=   1.00D-08

 CPU time for Fock operators                      1.12 sec
 
 Construction of ABS:
 Smallest eigenvalue of S          2.17E-04  (threshold= 1.00E-08)
 Ratio eigmin/eigmax               1.55E-06  (threshold= 1.00E-09)
 Smallest eigenvalue of S kept     2.17E-04  (threshold= 2.17E-04, 0 functions deleted, 376 kept)
 
 Construction of CABS:
 Smallest eigenvalue of S          2.15E-08  (threshold= 1.00E-08)
 Ratio eigmin/eigmax               2.15E-08  (threshold= 1.00E-09)
 Smallest eigenvalue of S kept     2.15E-08  (threshold= 2.15E-08, 0 functions deleted, 376 kept)
 
 CPU time for CABS singles                        0.19 sec

 CABS-singles contribution of  -0.01591395 patched into reference energy.
 New reference energy        -263.71141192
 
 AO(A)-basis ORBITAL           loaded. Number of functions:     230
 RI(R)-basis CC-PVTZ/JKFIT     loaded. Number of functions:     376
 DF-basis AUG-CC-PVTZ/MP2FIT   loaded. Number of functions:     516

 Screening thresholds:   THRAO=  1.00D-10  THRMO=  1.00D-09  THRPROD=  1.00D-09
                         THRSW=  1.00D-05  THROV=  1.00D-12  THRF12=   1.00D-08

 CPU time for 3-index integral evaluation         3.17 sec
 CPU time for first  half transformation          0.41 sec ( 7663.5 MFLOP/sec)
 CPU time for second half transformation          0.01 sec (10660.2 MFLOP/sec)
 CPU time for sorting                             0.15 sec
 CPU time for fitting                             0.06 sec (23217.5 MFLOP/sec)
 CPU time for tilde quantities                    0.08 sec (23111.0 MFLOP/sec)
 CPU time for assembly                            0.80 sec (28400.3 MFLOP/sec)
 CPU time for tranop_f12                          0.88 sec (32423.2 MFLOP/sec)
 CPU time for f12 integrals (total)               7.79 sec
 F12-matrices built in  3 passes.
 F12-matrices built in  3 passes.
 F12-matrices built in  3 passes.
 F12-matrices built in  3 passes.
 FC-matrix built in  3 passes.
 CPU time for f12 matrices (total)                0.54 sec

 Diagonal F12 approximation with fixed coefficients:  TSING= 0.500,  TTRIP= 0.250 (scaled by -1/beta)

 DF-MP2-F12 energy corrections:
 ------------------------------
 Approx.                                    Singlet             Triplet             Total
 DF-MP2-F12/3*C(DX,FIX)                -0.097811598953     -0.017379011511     -0.115190610464
 DF-MP2-F12/3*C(FIX)                   -0.079845104609     -0.013803000511     -0.093648105120
 DF-MP2-F12/3C(FIX)                    -0.080233199663     -0.013863104519     -0.094096304182

 DF-MP2-F12 correlation energies:
 --------------------------------
 Approx.                                    Singlet             Triplet             Ecorr            Total Energy
 DF-MP2                                -0.542603253122     -0.353265975681     -0.895869228803   -264.607281144126
 DF-MP2-F12/3*C(DX,FIX)                -0.640414852075     -0.370644987193     -1.011059839267   -264.722471754590
 DF-MP2-F12/3*C(FIX)                   -0.622448357731     -0.367068976192     -0.989517333923   -264.700929249246
 DF-MP2-F12/3C(FIX)                    -0.622836452785     -0.367129080200     -0.989965532985   -264.701377448309

 SCS-DF-MP2 energies (F_SING= 1.20000  F_TRIP= 0.62222  F_PARALLEL= 0.33333):
 ----------------------------------------------------------------------------
 SCS-DF-MP2                            -0.870933844170   -264.582345759493
 SCS-DF-MP2-F12/3*C(DX,FIX)            -0.999121370076   -264.710533285399
 SCS-DF-MP2-F12/3*C(FIX)               -0.975336503352   -264.686748418675
 SCS-DF-MP2-F12/3C(FIX)                -0.975839615467   -264.687251530790
 Symmetry transformation completed.

 Number of N-1 electron functions:              12
 Number of N-2 electron functions:              78
 Number of singly external CSFs:              2568
 Number of doubly external CSFs:           3298596
 Total number of CSFs:                     3301165

 Pair and operator lists are different

 Length of J-op  integral file:             474.22 MB
 Length of K-op  integral file:             572.29 MB
 Length of 3-ext integral record:             0.00 MB

 For full I/O caching in triples, increase memory by 50.81 Mwords to 151.09 Mwords.

 Integral transformation finished. Total CPU:  15.67 sec, npass=  1  Memory used:  87.46 MW

 Reference energy:                   -263.71141192

 Adding F12 terms to K(Cij), methodcc=6,  factor=1.0

 ITER.      SQ.NORM     CORR.ENERGY   TOTAL ENERGY   ENERGY CHANGE        DEN1      VAR(S)    VAR(P)  DIIS     TIME
   1      1.20410642    -0.87503449  -264.58644641     0.02083437     0.05092561  0.78D-02  0.61D-02  1  1    35.43
   2      1.21915467    -0.87038085  -264.58179276     0.00465365    -0.02124331  0.90D-04  0.63D-03  2  2    45.24
   3      1.22462961    -0.87049494  -264.58190685    -0.00011409    -0.00218442  0.15D-03  0.35D-04  3  3    54.98
   4      1.22766434    -0.87034305  -264.58175497     0.00015189    -0.00146700  0.11D-04  0.48D-05  4  4    64.80
   5      1.22888891    -0.87030336  -264.58171527     0.00003970    -0.00041549  0.12D-05  0.39D-06  5  5    74.61
   6      1.22910162    -0.87027391  -264.58168582     0.00002945    -0.00000949  0.16D-06  0.62D-07  6  6    84.43
   7      1.22915982    -0.87026890  -264.58168081     0.00000501    -0.00000847  0.43D-07  0.11D-07  6  2    94.24
   8      1.22917034    -0.87026818  -264.58168009     0.00000072     0.00000083  0.69D-08  0.17D-08  6  1   104.01
   9      1.22917161    -0.87026874  -264.58168066    -0.00000057     0.00000235  0.11D-08  0.31D-09  6  4   113.78

 Norm of t1 vector:      0.11064274      S-energy:     0.00000002      T1 diagnostic:  0.01596990
                                                                       D1 diagnostic:  0.04938754

 Adding energy correction from Wij-K(Fij), methodcc=6  factor=1.0
 
  CCSD correlation energy              -0.870268744620
  MP2-F12 correction (uncoupled)       -0.092923935052
  C*T doubles correction               -0.001506214758
  f12b correction                       0.015510611708


 Total CPU time for triples:    245.37 sec


 RESULTS
 =======

  Reference energy                   -263.695497967052
  F12 singles correction               -0.015913948271

 F12 singles corrections added to reference energy

  New reference energy               -263.711411915323

  F12a singlet correction              -0.080465918156
  F12a triplet correction              -0.013964231653
  F12a total correction                -0.094430149810

 F12a corrections for ansatz F12/3C(FIX) added to CCSD energy
 
  CCSD-F12a singlet pair energy        -0.645172708801
  CCSD-F12a triplet pair energy        -0.319526206330
  CCSD-F12a correlation energy         -0.964698894430

  Triples (T) contribution             -0.039569370413
  Total correlation energy             -1.004268264842

  CCSD-F12a total energy             -264.676110809753
  CCSD[T]-F12a energy                -264.718424233915
  CCSD-T-F12a energy                 -264.714719365431
 !CCSD(T)-F12a total energy          -264.715680180166

 F12b corrections for ansatz F12/3C(FIX) added to CCSD(T)-F12a energy

  CCSD-F12b singlet pair energy        -0.630937080840
  CCSD-F12b triplet pair energy        -0.318251222583
  CCSD-F12b correlation energy         -0.949188282722

  Triples (T) contribution             -0.039569370413
  Total correlation energy             -0.988757653135

  CCSD-F12b total energy             -264.660600198045
  CCSD[T]-F12b energy                -264.702913622207
  CCSD-T-F12b energy                 -264.699208753723
 !CCSD(T)-F12b total energy          -264.700169568458

 Timing summary (sec):

 STEP                 CPU(USER)    SYS     CPU(TOT)    WALL
 Transformation         15.79      1.41     17.20     18.00
 CCSD iterations        87.79      3.97     91.76     91.89
 Triples               245.37      3.90    249.27    249.15
 MP2-F12                10.22      1.48     11.70     13.09
 F12b energy             6.96      0.12      7.08      7.08

 Program statistics:

 Available memory in ccsd:                99998934
 Min. memory needed in ccsd:               8644845
 Max. memory used in ccsd:                11598633
 Max. memory used in cckext:               8768967 (10 integral passes)



 **********************************************************************************************************************************
 DATASETS  * FILE   NREC   LENGTH (MB)   RECORD NAMES
              1      20      527.84       500      610      700      900      950      970     1000      129      960     1100   
                                          VAR    BASINP    GEOM    SYMINP    ZMAT    AOBASIS   BASIS     P2S    ABASIS      S 
                                         1400     1410     1200     1210     1080     1600     1650     1700      960(1)  1380   
                                           T        V       H0       H01     AOSYM     SMH    MOLCAS    OPER    ABASIS    JKOP   

              2       5        2.50       700     1000     2100     7360     7350   
                                         GEOM     BASIS     RHF    F12ABS    EF12   

 PROGRAMS   *        TOTAL   CCSD(T)        HF       INT
 CPU TIMES  *       392.80    366.15     13.14     13.44
 REAL TIME  *       409.38 SEC
 DISK USED  *         6.11 GB      
 SF USED    *         1.91 GB      
 GA USED    *         2.40 MB       (max)       0.00 MB       (current)
 **********************************************************************************************************************************

     CCSD(T)-F12        HF-SCF  
   -264.70016957   -263.69549797
 **********************************************************************************************************************************
 Variable memory released
