
 Primary working directories    : /scratch/kee
 Secondary working directories  : /scratch/kee
 Wavefunction directory         : /home/kee/wfu/
 Main file repository           : /scratch/kee/

 ARCHNAME  : Linux/x86_64
 FC        : /opt/intel/composer_xe_2015.0.090/bin/intel64/ifort
 FCVERSION : 15.0.0
 BLASLIB   : -L/opt/intel/mkl/lib/intel64 -lmkl_intel_ilp64 -lmkl_sequential -lmkl_core
 id        : emory

 Nodes     nprocs
 node25       3
 Number of processes for MPI-2 version of Molpro:   nprocs(total)=    4   nprocs(compute)=    3   nprocs(helper)=    1
 ga_uses_ma=false, calling ma_init with nominal heap.
 GA-space will be limited to   8.0 MW (determined by -G option)

 Using customized tuning parameters: mindgm=7; mindgv=32; mindgc=1; mindgr=1; noblas=0; mincuda=1000; minvec=7
 default implementation of scratch files=sf  

 ***,co2h2o
 memory,100,m
 basis avtz
 geomtype = xyz
 geometry = {
 6
       0.00000000
 O     0.00032100    1.15989800    0.00000000
 O     0.00041400   -1.15989400    0.00000000
 O     2.14780879    1.56390079    0.56096983
 H     2.93936331    1.87285643    0.11862119
 H     2.46179460    1.08527304    1.32909206
 C     0.01953800    0.00000300    0.00000000
 }
 hf
 ccsd(t)-f12
 ---

 Variables initialized (665), CPU time= 0.01 sec
 Commands  initialized (462), CPU time= 0.00 sec, 486 directives.
 Default parameters read. Elapsed time= 0.03 sec

 Checking input...
 Passed
1


                                         ***  PROGRAM SYSTEM MOLPRO  ***
                         Copyright, University College Cardiff Consultants Limited, 2008

                                    Version 2010.1 linked 9 Dec 2014 15:06:28 


 **********************************************************************************************************************************
 LABEL *   co2h2o                                                                        
 Linux-2.6.32-504.el6.x86_64/node25(x86_64) 64 bit mpp version                           DATE: 15-Dec-16          TIME: 02:04:37  
 **********************************************************************************************************************************

 Patch level:      19
 **********************************************************************************************************************************

 Variable memory set to  100000000 words,  buffer space   230000 words

 SETTING BASIS          =    AVTZ
 SETTING GEOMTYPE       =    XYZ

Geometry recognized as XYZ



 Recomputing integrals since basis changed


 Using spherical harmonics

 Library entry O      S aug-cc-pVTZ          selected for orbital group  1
 Library entry O      P aug-cc-pVTZ          selected for orbital group  1
 Library entry O      D aug-cc-pVTZ          selected for orbital group  1
 Library entry O      F aug-cc-pVTZ          selected for orbital group  1
 Library entry H      S aug-cc-pVTZ          selected for orbital group  2
 Library entry H      P aug-cc-pVTZ          selected for orbital group  2
 Library entry H      D aug-cc-pVTZ          selected for orbital group  2
 Library entry C      S aug-cc-pVTZ          selected for orbital group  3
 Library entry C      P aug-cc-pVTZ          selected for orbital group  3
 Library entry C      D aug-cc-pVTZ          selected for orbital group  3
 Library entry C      F aug-cc-pVTZ          selected for orbital group  3

1PROGRAM * SEWARD (Integral evaluation for generally contracted gaussian basis sets)     Author: Roland Lindh, 1990

 Geometry written to block  1 of record 700


 Point group  C1  



 ATOMIC COORDINATES

 NR  ATOM    CHARGE       X              Y              Z

   1  O       8.00    0.000606602    2.191889560    0.000000000
   2  O       8.00    0.000782347   -2.191882001    0.000000000
   3  O       8.00    4.058770396    2.955344190    1.060079347
   4  H       1.00    5.554591657    3.539185736    0.224161562
   5  H       1.00    4.652117586    2.050868823    2.511619997
   6  C       6.00    0.036921469    0.000005669    0.000000000

 Bond lengths in Bohr (Angstrom)

 1-6  2.192184701  2-6  2.192185575  3-4  1.810279188  3-5  1.810278110
     (1.160054182)     (1.160054644)     (0.957958488)     (0.957957918)

 Bond angles

  1-6-2  178.10622893   4-3-5  105.10354909

 NUCLEAR CHARGE:                   32
 NUMBER OF PRIMITIVE AOS:         322
 NUMBER OF SYMMETRY AOS:          282
 NUMBER OF CONTRACTIONS:          230   ( 230A   )
 NUMBER OF CORE ORBITALS:           4   (   4A   )
 NUMBER OF VALENCE ORBITALS:       18   (  18A   )


 NUCLEAR REPULSION ENERGY  108.70856678


 Eigenvalues of metric

         1 0.193E-03 0.291E-03 0.316E-03 0.320E-03 0.648E-03 0.757E-03 0.862E-03 0.144E-02


 Contracted 2-electron integrals neglected if value below      1.0D-11
 AO integral compression algorithm  1   Integral accuracy      1.0D-11

     1383.858 MB (compressed) written to integral file ( 42.1%)

     Node minimum: 454.558 MB, node maximum: 471.073 MB


 NUMBER OF SORTED TWO-ELECTRON INTEGRALS:  117629820.     BUFFER LENGTH:  32768
 NUMBER OF SEGMENTS:   8  SEGMENT LENGTH:   15997437      RECORD LENGTH: 524288

 Memory used in sort:      16.55 MW

 SORT1 READ   410697961. AND WROTE   102970948. INTEGRALS IN    298 RECORDS. CPU TIME:     5.62 SEC, REAL TIME:     6.58 SEC
 SORT2 READ   307987655. AND WROTE   352862895. INTEGRALS IN   5391 RECORDS. CPU TIME:     1.81 SEC, REAL TIME:     2.50 SEC

 Node minimum:   117612110.  Node maximum:   117629820. integrals

 OPERATOR DM      FOR CENTER  0  COORDINATES:    0.000000    0.000000    0.000000


 **********************************************************************************************************************************
 DATASETS  * FILE   NREC   LENGTH (MB)   RECORD NAMES
              1      18        4.62       500      610      700      900      950      970     1000      129      960     1100   
                                          VAR    BASINP    GEOM    SYMINP    ZMAT    AOBASIS   BASIS     P2S    ABASIS      S 
                                         1400     1410     1200     1210     1080     1600     1650     1700   
                                           T        V       H0       H01     AOSYM     SMH    MOLCAS    OPER   

 PROGRAMS   *        TOTAL       INT
 CPU TIMES  *        12.56     12.48
 REAL TIME  *        14.55 SEC
 DISK USED  *         5.02 GB      
 GA USED    *         0.00 MB       (max)       0.00 MB       (current)
 **********************************************************************************************************************************

1PROGRAM * RHF-SCF (CLOSED SHELL)       Authors: W. Meyer, H.-J. Werner


 NUMBER OF ELECTRONS:      16+   16-    SPACE SYMMETRY=1    SPIN SYMMETRY=Singlet 
 CONVERGENCE THRESHOLDS:    1.00E-05 (Density)    1.00E-07 (Energy)
 MAX. NUMBER OF ITERATIONS:       60
 INTERPOLATION TYPE:            DIIS
 INTERPOLATION STEPS:              2 (START)      1 (STEP)
 LEVEL SHIFTS:                  0.00 (CLOSED)  0.00 (OPEN) 



 Orbital guess generated from atomic densities. Full valence occupancy:   22

 Molecular orbital dump at record        2100.2

 ITERATION    DDIFF          GRAD             ENERGY        2-EL.EN.            DIPOLE MOMENTS         DIIS
    1      0.000D+00      0.000D+00      -263.63769862    414.370060    1.14106   -0.14096    0.31849    0
    2      0.000D+00      0.476D-02      -263.70188126    408.935998    0.72722    0.22362    0.18477    1
    3      0.764D-02      0.330D-02      -263.74878132    411.765592    0.83107    0.03004    0.21571    2
    4      0.319D-02      0.320D-03      -263.74931025    411.565469    0.82940    0.07161    0.21533    3
    5      0.396D-03      0.125D-03      -263.74939714    411.557868    0.82592    0.04665    0.21395    4
    6      0.163D-03      0.507D-04      -263.74941174    411.568230    0.82531    0.05637    0.21361    5
    7      0.573D-04      0.123D-04      -263.74941295    411.565453    0.82531    0.05487    0.21360    6
    8      0.194D-04      0.415D-05      -263.74941307    411.563086    0.82516    0.05526    0.21355    7
    9      0.549D-05      0.114D-05      -263.74941309    411.564043    0.82517    0.05522    0.21356    8
   10      0.221D-05      0.424D-06      -263.74941309    411.563813    0.82516    0.05523    0.21356    0

 Final occupancy:  16

 !RHF STATE 1.1 Energy               -263.749413087339
 Nuclear energy                       108.70856678
 One-electron energy                 -578.23988634
 Two-electron energy                  205.78190648
 Virial quotient                       -1.00111644
 !RHF STATE 1.1 Dipole moment           0.82515613     0.05522908     0.21355749
 Dipole moment /Debye                   2.09720032     0.14036914     0.54277344

 Orbital energies:

         1.1          2.1          3.1          4.1          5.1          6.1          7.1          8.1          9.1         10.1
    -20.631830   -20.622329   -20.567292   -11.435703    -1.509447    -1.455803    -1.359420    -0.779718    -0.728417    -0.722687

        11.1         12.1         13.1         14.1         15.1         16.1         17.1         18.1
     -0.699486    -0.692432    -0.594293    -0.525080    -0.516822    -0.497278     0.025123     0.046037


 **********************************************************************************************************************************
 DATASETS  * FILE   NREC   LENGTH (MB)   RECORD NAMES
              1      18        4.62       500      610      700      900      950      970     1000      129      960     1100   
                                          VAR    BASINP    GEOM    SYMINP    ZMAT    AOBASIS   BASIS     P2S    ABASIS      S 
                                         1400     1410     1200     1210     1080     1600     1650     1700   
                                           T        V       H0       H01     AOSYM     SMH    MOLCAS    OPER   

              2       3        1.44       700     1000     2100   
                                         GEOM     BASIS     RHF  

 PROGRAMS   *        TOTAL        HF       INT
 CPU TIMES  *        25.14     12.58     12.48
 REAL TIME  *        27.81 SEC
 DISK USED  *         5.06 GB      
 SF USED    *         0.21 MB      
 GA USED    *         0.00 MB       (max)       0.00 MB       (current)
 **********************************************************************************************************************************


1PROGRAM * CCSD (Closed-shell coupled cluster)     Authors: C. Hampel, H.-J. Werner, 1991, M. Deegan, P.J. Knowles, 1992

                                  CCSD-F12 implementation by  H.-J. Werner, 2007

                   Density fitting integral evaluation by F.R. Manby, 2003,2007, G. Knizia, 2010

 Basis set CC-PVTZ/JKFIT generated.      Number of basis functions:   376 
 Basis set AUG-CC-PVTZ/MP2FIT generated. Number of basis functions:   516 

 Convergence thresholds:  THRVAR = 1.00D-08  THRDEN = 1.00D-06

 CCSD(T)     terms to be evaluated (factor= 1.000)


 Number of core orbitals:           4 (   4 )
 Number of closed-shell orbitals:  12 (  12 )
 Number of external orbitals:     214 ( 214 )

 Molecular orbitals read from record     2100.2  Type=RHF/CANONICAL (state 1.1)

 MP2-F12 correlation treatment (H.-J. Werner, 2006)
 --------------------------------------------------

 Using MP2-F12 with ansatz 3C(FIX)

 Using projected zeroth-order Hamiltonian (+Z)

 FOCKRIB=T FOCKRIC=T FOCKRIP=T CABSP=T CABSA=T CABSK=T CABSF=T GBC=F EBC=F DMAT=T NOFIK=T NOPAO=1 SOLVE=-1  USEPAO=0
 EXCH_A= T EXCH_B= F EXCH_C= F EXCH_P= F
 
 Geminal basis:    OPTFULL  GEM_TYPE=SLATER  BETA=1.0  NGEM=6

 Optimizing Gaussian exponents for each gem_beta

 Geminal optimization for beta= 1.0000
 Weight function:   m=0, omega= 1.4646

 Augmented Hessian optimization of geminal fit. Trust ratio= 0.40000
 Convergence reached after   2 iterations. Final gradient= 8.24D-16, Step= 4.32D-06, Delta= 1.28D-09
 
 Alpha:                 0.19532     0.81920     2.85917     9.50073    35.69989   197.79328
 Coeff:                 0.27070     0.30552     0.18297     0.10986     0.06810     0.04224
 

 All pairs explicitly correlated. Number of r12-pairs:           78
 
 AO(A)-basis ORBITAL           loaded. Number of functions:     230
 RI(R)-basis CC-PVTZ/JKFIT     loaded. Number of functions:     376
 DF-basis CC-PVTZ/JKFIT        loaded. Number of functions:     376

 Screening thresholds:   THRAO=  1.00D-10  THRMO=  1.00D-09  THRPROD=  1.00D-09
                         THRSW=  1.00D-05  THROV=  1.00D-12  THRF12=   1.00D-08

 CPU time for Fock operators                      0.95 sec
 
 Construction of ABS:
 Smallest eigenvalue of S          2.32E-04  (threshold= 1.00E-08)
 Ratio eigmin/eigmax               1.65E-06  (threshold= 1.00E-09)
 Smallest eigenvalue of S kept     2.32E-04  (threshold= 2.32E-04, 0 functions deleted, 376 kept)
 
 Construction of CABS:
 Smallest eigenvalue of S          2.18E-08  (threshold= 1.00E-08)
 Ratio eigmin/eigmax               2.18E-08  (threshold= 1.00E-09)
 Smallest eigenvalue of S kept     2.18E-08  (threshold= 2.18E-08, 0 functions deleted, 376 kept)
 
 CPU time for CABS singles                        0.15 sec

 CABS-singles contribution of  -0.01591468 patched into reference energy.
 New reference energy        -263.76532777
 
 AO(A)-basis ORBITAL           loaded. Number of functions:     230
 RI(R)-basis CC-PVTZ/JKFIT     loaded. Number of functions:     376
 DF-basis AUG-CC-PVTZ/MP2FIT   loaded. Number of functions:     516

 Screening thresholds:   THRAO=  1.00D-10  THRMO=  1.00D-09  THRPROD=  1.00D-09
                         THRSW=  1.00D-05  THROV=  1.00D-12  THRF12=   1.00D-08

 CPU time for 3-index integral evaluation         3.00 sec
 CPU time for first  half transformation          0.20 sec (14772.9 MFLOP/sec)
 CPU time for second half transformation          0.02 sec ( 5581.8 MFLOP/sec)
 CPU time for sorting                             0.14 sec
 CPU time for fitting                             0.05 sec (27861.0 MFLOP/sec)
 CPU time for tilde quantities                    0.08 sec (23111.0 MFLOP/sec)
 CPU time for assembly                            0.77 sec (31675.2 MFLOP/sec)
 CPU time for tranop_f12                          0.86 sec (34969.6 MFLOP/sec)
 CPU time for f12 integrals (total)               7.10 sec
 F12-matrices built in  3 passes.
 F12-matrices built in  3 passes.
 F12-matrices built in  3 passes.
 F12-matrices built in  3 passes.
 FC-matrix built in  3 passes.
 CPU time for f12 matrices (total)                0.48 sec

 Diagonal F12 approximation with fixed coefficients:  TSING= 0.500,  TTRIP= 0.250 (scaled by -1/beta)

 DF-MP2-F12 energy corrections:
 ------------------------------
 Approx.                                    Singlet             Triplet             Total
 DF-MP2-F12/3*C(DX,FIX)                -0.097449572127     -0.017105845948     -0.114555418075
 DF-MP2-F12/3*C(FIX)                   -0.079757938866     -0.013575347377     -0.093333286243
 DF-MP2-F12/3C(FIX)                    -0.080141832743     -0.013627738423     -0.093769571166

 DF-MP2-F12 correlation energies:
 --------------------------------
 Approx.                                    Singlet             Triplet             Ecorr            Total Energy
 DF-MP2                                -0.539715744593     -0.347588415931     -0.887304160523   -264.652631930193
 DF-MP2-F12/3*C(DX,FIX)                -0.637165316720     -0.364694261878     -1.001859578598   -264.767187348268
 DF-MP2-F12/3*C(FIX)                   -0.619473683458     -0.361163763308     -0.980637446766   -264.745965216436
 DF-MP2-F12/3C(FIX)                    -0.619857577336     -0.361216154354     -0.981073731689   -264.746401501359

 SCS-DF-MP2 energies (F_SING= 1.20000  F_TRIP= 0.62222  F_PARALLEL= 0.33333):
 ----------------------------------------------------------------------------
 SCS-DF-MP2                            -0.863936130090   -264.629263899760
 SCS-DF-MP2-F12/3*C(DX,FIX)            -0.991519254121   -264.756847023791
 SCS-DF-MP2-F12/3*C(FIX)               -0.968092539542   -264.733420309211
 SCS-DF-MP2-F12/3C(FIX)                -0.968585811067   -264.733913580737
 Symmetry transformation completed.

 Number of N-1 electron functions:              12
 Number of N-2 electron functions:              78
 Number of singly external CSFs:              2568
 Number of doubly external CSFs:           3298596
 Total number of CSFs:                     3301165

 Pair and operator lists are different

 Length of J-op  integral file:             474.22 MB
 Length of K-op  integral file:             572.29 MB
 Length of 3-ext integral record:             0.00 MB

 For full I/O caching in triples, increase memory by 50.81 Mwords to 151.09 Mwords.

 Integral transformation finished. Total CPU:  12.44 sec, npass=  1  Memory used:  87.46 MW

 Reference energy:                   -263.76532777

 Adding F12 terms to K(Cij), methodcc=6,  factor=1.0

 ITER.      SQ.NORM     CORR.ENERGY   TOTAL ENERGY   ENERGY CHANGE        DEN1      VAR(S)    VAR(P)  DIIS     TIME
   1      1.20293151    -0.86827943  -264.63360720     0.01903248     0.04813186  0.74D-02  0.57D-02  1  1    30.58
   2      1.21753691    -0.86391850  -264.62924627     0.00436092    -0.02059229  0.83D-04  0.61D-03  2  2    39.76
   3      1.22284967    -0.86402079  -264.62934856    -0.00010228    -0.00223147  0.14D-03  0.33D-04  3  3    48.74
   4      1.22570244    -0.86388332  -264.62921109     0.00013747    -0.00142281  0.82D-05  0.43D-05  4  4    57.91
   5      1.22677429    -0.86384529  -264.62917306     0.00003803    -0.00037606  0.67D-06  0.31D-06  5  5    66.94
   6      1.22694562    -0.86381811  -264.62914588     0.00002718    -0.00000751  0.61D-07  0.32D-07  6  6    75.99
   7      1.22698124    -0.86381478  -264.62914255     0.00000333    -0.00000688  0.88D-08  0.56D-08  6  2    85.02
   8      1.22698430    -0.86381435  -264.62914212     0.00000043     0.00000148  0.13D-08  0.62D-09  6  1    94.06
   9      1.22698459    -0.86381453  -264.62914230    -0.00000017     0.00000121  0.27D-09  0.73D-10  6  4   103.08

 Norm of t1 vector:      0.10719299      S-energy:    -0.00000010      T1 diagnostic:  0.01547198
                                                                       D1 diagnostic:  0.04618098

 Adding energy correction from Wij-K(Fij), methodcc=6  factor=1.0
 
  CCSD correlation energy              -0.863814526396
  MP2-F12 correction (uncoupled)       -0.092583296425
  C*T doubles correction               -0.001490562517
  f12b correction                       0.015448237856


 Total CPU time for triples:    196.24 sec


 RESULTS
 =======

  Reference energy                   -263.749413087339
  F12 singles correction               -0.015914682330

 F12 singles corrections added to reference energy

  New reference energy               -263.765327769670

  F12a singlet correction              -0.080344302315
  F12a triplet correction              -0.013729556627
  F12a total correction                -0.094073858942

 F12a corrections for ansatz F12/3C(FIX) added to CCSD energy
 
  CCSD-F12a singlet pair energy        -0.643089319936
  CCSD-F12a triplet pair energy        -0.314798962360
  CCSD-F12a correlation energy         -0.957888385338

  Triples (T) contribution             -0.038526870582
  Total correlation energy             -0.996415255920

  CCSD-F12a total energy             -264.723216155007
  CCSD[T]-F12a energy                -264.764353078333
  CCSD-T-F12a energy                 -264.760794500508
 !CCSD(T)-F12a total energy          -264.761743025590

 F12b corrections for ansatz F12/3C(FIX) added to CCSD(T)-F12a energy

  CCSD-F12b singlet pair energy        -0.628890131425
  CCSD-F12b triplet pair energy        -0.313549913015
  CCSD-F12b correlation energy         -0.942440147481

  Triples (T) contribution             -0.038526870582
  Total correlation energy             -0.980967018064

  CCSD-F12b total energy             -264.707767917151
  CCSD[T]-F12b energy                -264.748904840476
  CCSD-T-F12b energy                 -264.745346262652
 !CCSD(T)-F12b total energy          -264.746294787733

 Timing summary (sec):

 STEP                 CPU(USER)    SYS     CPU(TOT)    WALL
 Transformation         12.54      1.03     13.57     13.58
 CCSD iterations        81.33      3.13     84.46     84.89
 Triples               196.24      2.22    198.46    198.38
 MP2-F12                 9.23      1.17     10.40     10.45
 F12b energy             6.40      0.07      6.47      6.46

 Program statistics:

 Available memory in ccsd:                99998934
 Min. memory needed in ccsd:               8644845
 Max. memory used in ccsd:                11598633
 Max. memory used in cckext:               8768967 (10 integral passes)



 **********************************************************************************************************************************
 DATASETS  * FILE   NREC   LENGTH (MB)   RECORD NAMES
              1      20      527.84       500      610      700      900      950      970     1000      129      960     1100   
                                          VAR    BASINP    GEOM    SYMINP    ZMAT    AOBASIS   BASIS     P2S    ABASIS      S 
                                         1400     1410     1200     1210     1080     1600     1650     1700      960(1)  1380   
                                           T        V       H0       H01     AOSYM     SMH    MOLCAS    OPER    ABASIS    JKOP   

              2       5        2.50       700     1000     2100     7360     7350   
                                         GEOM     BASIS     RHF    F12ABS    EF12   

 PROGRAMS   *        TOTAL   CCSD(T)        HF       INT
 CPU TIMES  *       331.00    305.86     12.58     12.48
 REAL TIME  *       341.98 SEC
 DISK USED  *         5.92 GB      
 SF USED    *         1.91 GB      
 GA USED    *         2.40 MB       (max)       0.00 MB       (current)
 **********************************************************************************************************************************

     CCSD(T)-F12        HF-SCF  
   -264.74629479   -263.74941309
 **********************************************************************************************************************************
 Variable memory released
