
 Primary working directories    : /scratch/kee
 Secondary working directories  : /scratch/kee
 Wavefunction directory         : /home/kee/wfu/
 Main file repository           : /scratch/kee/

 ARCHNAME  : Linux/x86_64
 FC        : /opt/intel/composer_xe_2015.0.090/bin/intel64/ifort
 FCVERSION : 15.0.0
 BLASLIB   : -L/opt/intel/mkl/lib/intel64 -lmkl_intel_ilp64 -lmkl_sequential -lmkl_core
 id        : emory

 Nodes     nprocs
 node22       3
 Number of processes for MPI-2 version of Molpro:   nprocs(total)=    4   nprocs(compute)=    3   nprocs(helper)=    1
 ga_uses_ma=false, calling ma_init with nominal heap.
 GA-space will be limited to   8.0 MW (determined by -G option)

 Using customized tuning parameters: mindgm=7; mindgv=32; mindgc=1; mindgr=1; noblas=0; mincuda=1000; minvec=7
 default implementation of scratch files=sf  

 ***,co2h2o
 memory,100,m
 basis avtz
 geomtype = xyz
 geometry = {
 6
       0.00000000
 O     0.00032100    1.15989800    0.00000000
 O     0.00041400   -1.15989400    0.00000000
 O     4.55196654    3.33052607    1.19465796
 H     5.34352105    3.63948171    0.75230932
 H     4.86595235    2.85189832    1.96278019
 C     0.01953800    0.00000300    0.00000000
 }
 hf
 ccsd(t)-f12
 ---

 Variables initialized (665), CPU time= 0.01 sec
 Commands  initialized (462), CPU time= 0.00 sec, 486 directives.
 Default parameters read. Elapsed time= 0.04 sec

 Checking input...
 Passed
1


                                         ***  PROGRAM SYSTEM MOLPRO  ***
                         Copyright, University College Cardiff Consultants Limited, 2008

                                    Version 2010.1 linked 9 Dec 2014 15:06:28 


 **********************************************************************************************************************************
 LABEL *   co2h2o                                                                        
 Linux-2.6.32-504.el6.x86_64/node22(x86_64) 64 bit mpp version                           DATE: 15-Dec-16          TIME: 00:28:31  
 **********************************************************************************************************************************

 Patch level:      19
 **********************************************************************************************************************************

 Variable memory set to  100000000 words,  buffer space   230000 words

 SETTING BASIS          =    AVTZ
 SETTING GEOMTYPE       =    XYZ

Geometry recognized as XYZ



 Recomputing integrals since basis changed


 Using spherical harmonics

 Library entry O      S aug-cc-pVTZ          selected for orbital group  1
 Library entry O      P aug-cc-pVTZ          selected for orbital group  1
 Library entry O      D aug-cc-pVTZ          selected for orbital group  1
 Library entry O      F aug-cc-pVTZ          selected for orbital group  1
 Library entry H      S aug-cc-pVTZ          selected for orbital group  2
 Library entry H      P aug-cc-pVTZ          selected for orbital group  2
 Library entry H      D aug-cc-pVTZ          selected for orbital group  2
 Library entry C      S aug-cc-pVTZ          selected for orbital group  3
 Library entry C      P aug-cc-pVTZ          selected for orbital group  3
 Library entry C      D aug-cc-pVTZ          selected for orbital group  3
 Library entry C      F aug-cc-pVTZ          selected for orbital group  3

1PROGRAM * SEWARD (Integral evaluation for generally contracted gaussian basis sets)     Author: Roland Lindh, 1990

 Geometry written to block  1 of record 700


 Point group  C1  



 ATOMIC COORDINATES

 NR  ATOM    CHARGE       X              Y              Z

   1  O       8.00    0.000606602    2.191889560    0.000000000
   2  O       8.00    0.000782347   -2.191882001    0.000000000
   3  O       8.00    8.601970120    6.293782146    2.257576365
   4  H       1.00   10.097791362    6.877623692    1.421658581
   5  H       1.00    9.195317310    5.389306779    3.709117015
   6  C       6.00    0.036921469    0.000005669    0.000000000

 Bond lengths in Bohr (Angstrom)

 1-6  2.192184701  2-6  2.192185575  3-4  1.810279172  3-5  1.810278110
     (1.160054182)     (1.160054644)     (0.957958480)     (0.957957918)

 Bond angles

  1-6-2  178.10622893   4-3-5  105.10354942

 NUCLEAR CHARGE:                   32
 NUMBER OF PRIMITIVE AOS:         322
 NUMBER OF SYMMETRY AOS:          282
 NUMBER OF CONTRACTIONS:          230   ( 230A   )
 NUMBER OF CORE ORBITALS:           4   (   4A   )
 NUMBER OF VALENCE ORBITALS:       18   (  18A   )


 NUCLEAR REPULSION ENERGY   87.46716311


 Eigenvalues of metric

         1 0.337E-03 0.370E-03 0.386E-03 0.402E-03 0.892E-03 0.912E-03 0.164E-02 0.171E-02


 Contracted 2-electron integrals neglected if value below      1.0D-11
 AO integral compression algorithm  1   Integral accuracy      1.0D-11

     727.450 MB (compressed) written to integral file ( 22.9%)

     Node minimum: 237.502 MB, node maximum: 251.658 MB


 NUMBER OF SORTED TWO-ELECTRON INTEGRALS:  117629820.     BUFFER LENGTH:  32768
 NUMBER OF SEGMENTS:   8  SEGMENT LENGTH:   15997437      RECORD LENGTH: 524288

 Memory used in sort:      16.55 MW

 SORT1 READ   396677825. AND WROTE    57109003. INTEGRALS IN    167 RECORDS. CPU TIME:     4.23 SEC, REAL TIME:     4.88 SEC
 SORT2 READ   170718963. AND WROTE   352862895. INTEGRALS IN   2880 RECORDS. CPU TIME:     1.40 SEC, REAL TIME:     1.86 SEC

 Node minimum:   117612110.  Node maximum:   117629820. integrals

 OPERATOR DM      FOR CENTER  0  COORDINATES:    0.000000    0.000000    0.000000


 **********************************************************************************************************************************
 DATASETS  * FILE   NREC   LENGTH (MB)   RECORD NAMES
              1      18        4.62       500      610      700      900      950      970     1000      129      960     1100   
                                          VAR    BASINP    GEOM    SYMINP    ZMAT    AOBASIS   BASIS     P2S    ABASIS      S 
                                         1400     1410     1200     1210     1080     1600     1650     1700   
                                           T        V       H0       H01     AOSYM     SMH    MOLCAS    OPER   

 PROGRAMS   *        TOTAL       INT
 CPU TIMES  *         9.56      9.49
 REAL TIME  *        11.14 SEC
 DISK USED  *         2.73 GB      
 GA USED    *         0.00 MB       (max)       0.00 MB       (current)
 **********************************************************************************************************************************

1PROGRAM * RHF-SCF (CLOSED SHELL)       Authors: W. Meyer, H.-J. Werner


 NUMBER OF ELECTRONS:      16+   16-    SPACE SYMMETRY=1    SPIN SYMMETRY=Singlet 
 CONVERGENCE THRESHOLDS:    1.00E-05 (Density)    1.00E-07 (Energy)
 MAX. NUMBER OF ITERATIONS:       60
 INTERPOLATION TYPE:            DIIS
 INTERPOLATION STEPS:              2 (START)      1 (STEP)
 LEVEL SHIFTS:                  0.00 (CLOSED)  0.00 (OPEN) 



 Orbital guess generated from atomic densities. Full valence occupancy:   22

 Molecular orbital dump at record        2100.2

 ITERATION    DDIFF          GRAD             ENERGY        2-EL.EN.            DIPOLE MOMENTS         DIIS
    1      0.000D+00      0.000D+00      -263.66103009    370.657606    1.12580   -0.16404    0.31509    0
    2      0.000D+00      0.468D-02      -263.72627569    366.007392    0.65258   -0.06186    0.18705    1
    3      0.749D-02      0.317D-02      -263.76928603    368.583139    0.77183   -0.09496    0.21740    2
    4      0.308D-02      0.297D-03      -263.76977462    368.369894    0.77467   -0.09104    0.21856    3
    5      0.356D-03      0.863D-04      -263.76983123    368.373323    0.76972   -0.09333    0.21706    4
    6      0.133D-03      0.349D-04      -263.76983823    368.386971    0.77029   -0.09149    0.21726    5
    7      0.437D-04      0.888D-05      -263.76983896    368.379103    0.76990   -0.09233    0.21715    6
    8      0.145D-04      0.249D-05      -263.76983901    368.379719    0.76988   -0.09179    0.21714    7
    9      0.404D-05      0.168D-05      -263.76983902    368.380085    0.76988   -0.09217    0.21714    0

 Final occupancy:  16

 !RHF STATE 1.1 Energy               -263.769839018437
 Nuclear energy                        87.46716311
 One-electron energy                 -535.42704445
 Two-electron energy                  184.19004233
 Virial quotient                       -1.00173619
 !RHF STATE 1.1 Dipole moment           0.76987866    -0.09217170     0.21714112
 Dipole moment /Debye                   1.95670821    -0.23426176     0.55188153

 Orbital energies:

         1.1          2.1          3.1          4.1          5.1          6.1          7.1          8.1          9.1         10.1
    -20.648205   -20.647436   -20.567473   -11.455892    -1.527231    -1.474084    -1.353224    -0.795963    -0.738799    -0.719017

        11.1         12.1         13.1         14.1         15.1         16.1         17.1         18.1
     -0.711065    -0.710986    -0.583977    -0.539839    -0.539753    -0.510536     0.028188     0.045729


 **********************************************************************************************************************************
 DATASETS  * FILE   NREC   LENGTH (MB)   RECORD NAMES
              1      18        4.62       500      610      700      900      950      970     1000      129      960     1100   
                                          VAR    BASINP    GEOM    SYMINP    ZMAT    AOBASIS   BASIS     P2S    ABASIS      S 
                                         1400     1410     1200     1210     1080     1600     1650     1700   
                                           T        V       H0       H01     AOSYM     SMH    MOLCAS    OPER   

              2       3        1.44       700     1000     2100   
                                         GEOM     BASIS     RHF  

 PROGRAMS   *        TOTAL        HF       INT
 CPU TIMES  *        20.44     10.88      9.49
 REAL TIME  *        22.38 SEC
 DISK USED  *         2.77 GB      
 SF USED    *         0.21 MB      
 GA USED    *         0.00 MB       (max)       0.00 MB       (current)
 **********************************************************************************************************************************


1PROGRAM * CCSD (Closed-shell coupled cluster)     Authors: C. Hampel, H.-J. Werner, 1991, M. Deegan, P.J. Knowles, 1992

                                  CCSD-F12 implementation by  H.-J. Werner, 2007

                   Density fitting integral evaluation by F.R. Manby, 2003,2007, G. Knizia, 2010

 Basis set CC-PVTZ/JKFIT generated.      Number of basis functions:   376 
 Basis set AUG-CC-PVTZ/MP2FIT generated. Number of basis functions:   516 

 Convergence thresholds:  THRVAR = 1.00D-08  THRDEN = 1.00D-06

 CCSD(T)     terms to be evaluated (factor= 1.000)


 Number of core orbitals:           4 (   4 )
 Number of closed-shell orbitals:  12 (  12 )
 Number of external orbitals:     214 ( 214 )

 Molecular orbitals read from record     2100.2  Type=RHF/CANONICAL (state 1.1)

 MP2-F12 correlation treatment (H.-J. Werner, 2006)
 --------------------------------------------------

 Using MP2-F12 with ansatz 3C(FIX)

 Using projected zeroth-order Hamiltonian (+Z)

 FOCKRIB=T FOCKRIC=T FOCKRIP=T CABSP=T CABSA=T CABSK=T CABSF=T GBC=F EBC=F DMAT=T NOFIK=T NOPAO=1 SOLVE=-1  USEPAO=0
 EXCH_A= T EXCH_B= F EXCH_C= F EXCH_P= F
 
 Geminal basis:    OPTFULL  GEM_TYPE=SLATER  BETA=1.0  NGEM=6

 Optimizing Gaussian exponents for each gem_beta

 Geminal optimization for beta= 1.0000
 Weight function:   m=0, omega= 1.4646

 Augmented Hessian optimization of geminal fit. Trust ratio= 0.40000
 Convergence reached after   2 iterations. Final gradient= 8.24D-16, Step= 4.32D-06, Delta= 1.28D-09
 
 Alpha:                 0.19532     0.81920     2.85917     9.50073    35.69989   197.79328
 Coeff:                 0.27070     0.30552     0.18297     0.10986     0.06810     0.04224
 

 All pairs explicitly correlated. Number of r12-pairs:           78
 
 AO(A)-basis ORBITAL           loaded. Number of functions:     230
 RI(R)-basis CC-PVTZ/JKFIT     loaded. Number of functions:     376
 DF-basis CC-PVTZ/JKFIT        loaded. Number of functions:     376

 Screening thresholds:   THRAO=  1.00D-10  THRMO=  1.00D-09  THRPROD=  1.00D-09
                         THRSW=  1.00D-05  THROV=  1.00D-12  THRF12=   1.00D-08

 CPU time for Fock operators                      1.00 sec
 
 Construction of ABS:
 Smallest eigenvalue of S          2.57E-04  (threshold= 1.00E-08)
 Ratio eigmin/eigmax               1.83E-06  (threshold= 1.00E-09)
 Smallest eigenvalue of S kept     2.57E-04  (threshold= 2.57E-04, 0 functions deleted, 376 kept)
 
 Construction of CABS:
 Smallest eigenvalue of S          2.28E-08  (threshold= 1.00E-08)
 Ratio eigmin/eigmax               2.28E-08  (threshold= 1.00E-09)
 Smallest eigenvalue of S kept     2.28E-08  (threshold= 2.28E-08, 0 functions deleted, 376 kept)
 
 CPU time for CABS singles                        0.17 sec

 CABS-singles contribution of  -0.01596155 patched into reference energy.
 New reference energy        -263.78580056
 
 AO(A)-basis ORBITAL           loaded. Number of functions:     230
 RI(R)-basis CC-PVTZ/JKFIT     loaded. Number of functions:     376
 DF-basis AUG-CC-PVTZ/MP2FIT   loaded. Number of functions:     516

 Screening thresholds:   THRAO=  1.00D-10  THRMO=  1.00D-09  THRPROD=  1.00D-09
                         THRSW=  1.00D-05  THROV=  1.00D-12  THRF12=   1.00D-08

 CPU time for 3-index integral evaluation         2.22 sec
 CPU time for first  half transformation          0.25 sec (11776.9 MFLOP/sec)
 CPU time for second half transformation          0.04 sec ( 2689.1 MFLOP/sec)
 CPU time for sorting                             0.17 sec
 CPU time for fitting                             0.05 sec (27861.0 MFLOP/sec)
 CPU time for tilde quantities                    0.06 sec (30814.7 MFLOP/sec)
 CPU time for assembly                            0.83 sec (27826.0 MFLOP/sec)
 CPU time for tranop_f12                          0.89 sec (33508.0 MFLOP/sec)
 CPU time for f12 integrals (total)               6.70 sec
 F12-matrices built in  3 passes.
 F12-matrices built in  3 passes.
 F12-matrices built in  3 passes.
 F12-matrices built in  3 passes.
 FC-matrix built in  3 passes.
 CPU time for f12 matrices (total)                0.51 sec

 Diagonal F12 approximation with fixed coefficients:  TSING= 0.500,  TTRIP= 0.250 (scaled by -1/beta)

 DF-MP2-F12 energy corrections:
 ------------------------------
 Approx.                                    Singlet             Triplet             Total
 DF-MP2-F12/3*C(DX,FIX)                -0.097492486126     -0.016948810276     -0.114441296403
 DF-MP2-F12/3*C(FIX)                   -0.079893583584     -0.013406071716     -0.093299655299
 DF-MP2-F12/3C(FIX)                    -0.080252360420     -0.013429410960     -0.093681771379

 DF-MP2-F12 correlation energies:
 --------------------------------
 Approx.                                    Singlet             Triplet             Ecorr            Total Energy
 DF-MP2                                -0.537384520706     -0.342836943869     -0.880221464575   -264.666022028728
 DF-MP2-F12/3*C(DX,FIX)                -0.634877006832     -0.359785754146     -0.994662760978   -264.780463325130
 DF-MP2-F12/3*C(FIX)                   -0.617278104290     -0.356243015585     -0.973521119875   -264.759321684027
 DF-MP2-F12/3C(FIX)                    -0.617636881126     -0.356266354829     -0.973903235954   -264.759703800107

 SCS-DF-MP2 energies (F_SING= 1.20000  F_TRIP= 0.62222  F_PARALLEL= 0.33333):
 ----------------------------------------------------------------------------
 SCS-DF-MP2                            -0.858182189921   -264.643982754074
 SCS-DF-MP2-F12/3*C(DX,FIX)            -0.985719099667   -264.771519663819
 SCS-DF-MP2-F12/3*C(FIX)               -0.962396045956   -264.748196610108
 SCS-DF-MP2-F12/3C(FIX)                -0.962841100355   -264.748641664508
 Symmetry transformation completed.

 Number of N-1 electron functions:              12
 Number of N-2 electron functions:              78
 Number of singly external CSFs:              2568
 Number of doubly external CSFs:           3298596
 Total number of CSFs:                     3301165

 Pair and operator lists are different

 Length of J-op  integral file:             474.22 MB
 Length of K-op  integral file:             572.29 MB
 Length of 3-ext integral record:             0.00 MB

 For full I/O caching in triples, increase memory by 50.81 Mwords to 151.09 Mwords.

 Integral transformation finished. Total CPU:  13.59 sec, npass=  1  Memory used:  87.46 MW

 Reference energy:                   -263.78580056

 Adding F12 terms to K(Cij), methodcc=6,  factor=1.0

 ITER.      SQ.NORM     CORR.ENERGY   TOTAL ENERGY   ENERGY CHANGE        DEN1      VAR(S)    VAR(P)  DIIS     TIME
   1      1.20179667    -0.86229167  -264.64809223     0.01794603     0.04641003  0.71D-02  0.55D-02  1  1    30.83
   2      1.21602771    -0.85810476  -264.64390533     0.00418690    -0.02005375  0.85D-04  0.58D-03  2  2    39.94
   3      1.22133945    -0.85819880  -264.64399936    -0.00009404    -0.00235161  0.13D-03  0.32D-04  3  3    48.93
   4      1.22411076    -0.85807354  -264.64387410     0.00012526    -0.00140094  0.74D-05  0.40D-05  4  4    57.99
   5      1.22512475    -0.85803650  -264.64383707     0.00003704    -0.00036163  0.54D-06  0.28D-06  5  5    67.05
   6      1.22528439    -0.85801005  -264.64381061     0.00002645    -0.00000788  0.39D-07  0.23D-07  6  6    76.15
   7      1.22531326    -0.85800767  -264.64380823     0.00000238    -0.00000614  0.25D-08  0.39D-08  6  4    85.11
   8      1.22531356    -0.85800719  -264.64380775     0.00000048     0.00000191  0.38D-09  0.26D-09  6  1    94.02
   9      1.22531417    -0.85800725  -264.64380782    -0.00000007     0.00000055  0.25D-10  0.21D-10  6  2   103.09

 Norm of t1 vector:      0.10539614      S-energy:     0.00000084      T1 diagnostic:  0.01521262
                                                                       D1 diagnostic:  0.04464825

 Adding energy correction from Wij-K(Fij), methodcc=6  factor=1.0
 
  CCSD correlation energy              -0.858007252925
  MP2-F12 correction (uncoupled)       -0.092530393057
  C*T doubles correction               -0.001473195983
  f12b correction                       0.015402568057


 Total CPU time for triples:    206.91 sec


 RESULTS
 =======

  Reference energy                   -263.769839018437
  F12 singles correction               -0.015961545715

 F12 singles corrections added to reference energy

  New reference energy               -263.785800564152

  F12a singlet correction              -0.080455127794
  F12a triplet correction              -0.013548461246
  F12a total correction                -0.094003589040

 F12a corrections for ansatz F12/3C(FIX) added to CCSD energy
 
  CCSD-F12a singlet pair energy        -0.641576425473
  CCSD-F12a triplet pair energy        -0.310435256749
  CCSD-F12a correlation energy         -0.952010841965

  Triples (T) contribution             -0.037526066837
  Total correlation energy             -0.989536908802

  CCSD-F12a total energy             -264.737811406117
  CCSD[T]-F12a energy                -264.777855834377
  CCSD-T-F12a energy                 -264.774407252535
 !CCSD(T)-F12a total energy          -264.775337472954

 F12b corrections for ansatz F12/3C(FIX) added to CCSD(T)-F12a energy

  CCSD-F12b singlet pair energy        -0.627397784381
  CCSD-F12b triplet pair energy        -0.309211329785
  CCSD-F12b correlation energy         -0.936608273908

  Triples (T) contribution             -0.037526066837
  Total correlation energy             -0.974134340745

  CCSD-F12b total energy             -264.722408838060
  CCSD[T]-F12b energy                -264.762453266320
  CCSD-T-F12b energy                 -264.759004684477
 !CCSD(T)-F12b total energy          -264.759934904897

 Timing summary (sec):

 STEP                 CPU(USER)    SYS     CPU(TOT)    WALL
 Transformation         13.70      1.15     14.85     14.85
 CCSD iterations        80.43      3.10     83.53     83.59
 Triples               206.91      2.37    209.28    209.18
 MP2-F12                 8.98      1.22     10.20     10.22
 F12b energy             5.90      0.04      5.94      5.95

 Program statistics:

 Available memory in ccsd:                99998934
 Min. memory needed in ccsd:               8644845
 Max. memory used in ccsd:                11598633
 Max. memory used in cckext:               8768967 (10 integral passes)



 **********************************************************************************************************************************
 DATASETS  * FILE   NREC   LENGTH (MB)   RECORD NAMES
              1      20      527.84       500      610      700      900      950      970     1000      129      960     1100   
                                          VAR    BASINP    GEOM    SYMINP    ZMAT    AOBASIS   BASIS     P2S    ABASIS      S 
                                         1400     1410     1200     1210     1080     1600     1650     1700      960(1)  1380   
                                           T        V       H0       H01     AOSYM     SMH    MOLCAS    OPER    ABASIS    JKOP   

              2       5        2.50       700     1000     2100     7360     7350   
                                         GEOM     BASIS     RHF    F12ABS    EF12   

 PROGRAMS   *        TOTAL   CCSD(T)        HF       INT
 CPU TIMES  *       336.49    316.05     10.88      9.49
 REAL TIME  *       346.64 SEC
 DISK USED  *         3.63 GB      
 SF USED    *         1.91 GB      
 GA USED    *         2.40 MB       (max)       0.00 MB       (current)
 **********************************************************************************************************************************

     CCSD(T)-F12        HF-SCF  
   -264.75993490   -263.76983902
 **********************************************************************************************************************************
 Variable memory released
