
 Primary working directories    : /scratch/kee
 Secondary working directories  : /scratch/kee
 Wavefunction directory         : /home/kee/wfu/
 Main file repository           : /scratch/kee/

 ARCHNAME  : Linux/x86_64
 FC        : /opt/intel/composer_xe_2015.0.090/bin/intel64/ifort
 FCVERSION : 15.0.0
 BLASLIB   : -L/opt/intel/mkl/lib/intel64 -lmkl_intel_ilp64 -lmkl_sequential -lmkl_core
 id        : emory

 Nodes     nprocs
 node22       3
 Number of processes for MPI-2 version of Molpro:   nprocs(total)=    4   nprocs(compute)=    3   nprocs(helper)=    1
 ga_uses_ma=false, calling ma_init with nominal heap.
 GA-space will be limited to   8.0 MW (determined by -G option)

 Using customized tuning parameters: mindgm=7; mindgv=32; mindgc=1; mindgr=1; noblas=0; mincuda=1000; minvec=7
 default implementation of scratch files=sf  

 ***,co2h2o
 memory,100,m
 basis avtz
 geomtype = xyz
 geometry = {
 6
       0.00000000
 O     0.00032100    1.15989800    0.00000000
 O     0.00041400   -1.15989400    0.00000000
 O     4.67020380    3.41740928    1.22582295
 H     5.46175832    3.72636492    0.78347431
 H     4.98418961    2.93878153    1.99394518
 C     0.01953800    0.00000300    0.00000000
 }
 hf
 ccsd(t)-f12
 ---

 Variables initialized (665), CPU time= 0.00 sec
 Commands  initialized (462), CPU time= 0.00 sec, 486 directives.
 Default parameters read. Elapsed time= 0.03 sec

 Checking input...
 Passed
1


                                         ***  PROGRAM SYSTEM MOLPRO  ***
                         Copyright, University College Cardiff Consultants Limited, 2008

                                    Version 2010.1 linked 9 Dec 2014 15:06:28 


 **********************************************************************************************************************************
 LABEL *   co2h2o                                                                        
 Linux-2.6.32-504.el6.x86_64/node22(x86_64) 64 bit mpp version                           DATE: 15-Dec-16          TIME: 00:46:56  
 **********************************************************************************************************************************

 Patch level:      19
 **********************************************************************************************************************************

 Variable memory set to  100000000 words,  buffer space   230000 words

 SETTING BASIS          =    AVTZ
 SETTING GEOMTYPE       =    XYZ

Geometry recognized as XYZ



 Recomputing integrals since basis changed


 Using spherical harmonics

 Library entry O      S aug-cc-pVTZ          selected for orbital group  1
 Library entry O      P aug-cc-pVTZ          selected for orbital group  1
 Library entry O      D aug-cc-pVTZ          selected for orbital group  1
 Library entry O      F aug-cc-pVTZ          selected for orbital group  1
 Library entry H      S aug-cc-pVTZ          selected for orbital group  2
 Library entry H      P aug-cc-pVTZ          selected for orbital group  2
 Library entry H      D aug-cc-pVTZ          selected for orbital group  2
 Library entry C      S aug-cc-pVTZ          selected for orbital group  3
 Library entry C      P aug-cc-pVTZ          selected for orbital group  3
 Library entry C      D aug-cc-pVTZ          selected for orbital group  3
 Library entry C      F aug-cc-pVTZ          selected for orbital group  3

1PROGRAM * SEWARD (Integral evaluation for generally contracted gaussian basis sets)     Author: Roland Lindh, 1990

 Geometry written to block  1 of record 700


 Point group  C1  



 ATOMIC COORDINATES

 NR  ATOM    CHARGE       X              Y              Z

   1  O       8.00    0.000606602    2.191889560    0.000000000
   2  O       8.00    0.000782347   -2.191882001    0.000000000
   3  O       8.00    8.825406160    6.457967618    2.316469661
   4  H       1.00   10.321227421    7.041809165    1.480551877
   5  H       1.00    9.418753350    5.553492252    3.768010311
   6  C       6.00    0.036921469    0.000005669    0.000000000

 Bond lengths in Bohr (Angstrom)

 1-6  2.192184701  2-6  2.192185575  3-4  1.810279188  3-5  1.810278110
     (1.160054182)     (1.160054644)     (0.957958488)     (0.957957918)

 Bond angles

  1-6-2  178.10622893   4-3-5  105.10354909

 NUCLEAR CHARGE:                   32
 NUMBER OF PRIMITIVE AOS:         322
 NUMBER OF SYMMETRY AOS:          282
 NUMBER OF CONTRACTIONS:          230   ( 230A   )
 NUMBER OF CORE ORBITALS:           4   (   4A   )
 NUMBER OF VALENCE ORBITALS:       18   (  18A   )


 NUCLEAR REPULSION ENERGY   86.97138695


 Eigenvalues of metric

         1 0.338E-03 0.372E-03 0.386E-03 0.403E-03 0.892E-03 0.912E-03 0.164E-02 0.171E-02


 Contracted 2-electron integrals neglected if value below      1.0D-11
 AO integral compression algorithm  1   Integral accuracy      1.0D-11

     706.216 MB (compressed) written to integral file ( 22.4%)

     Node minimum: 227.279 MB, node maximum: 247.726 MB


 NUMBER OF SORTED TWO-ELECTRON INTEGRALS:  117629820.     BUFFER LENGTH:  32768
 NUMBER OF SEGMENTS:   8  SEGMENT LENGTH:   15997437      RECORD LENGTH: 524288

 Memory used in sort:      16.55 MW

 SORT1 READ   394175261. AND WROTE    55084744. INTEGRALS IN    161 RECORDS. CPU TIME:     4.21 SEC, REAL TIME:     4.82 SEC
 SORT2 READ   164635137. AND WROTE   352862895. INTEGRALS IN   2601 RECORDS. CPU TIME:     1.50 SEC, REAL TIME:     1.90 SEC

 Node minimum:   117612110.  Node maximum:   117629820. integrals

 OPERATOR DM      FOR CENTER  0  COORDINATES:    0.000000    0.000000    0.000000


 **********************************************************************************************************************************
 DATASETS  * FILE   NREC   LENGTH (MB)   RECORD NAMES
              1      18        4.62       500      610      700      900      950      970     1000      129      960     1100   
                                          VAR    BASINP    GEOM    SYMINP    ZMAT    AOBASIS   BASIS     P2S    ABASIS      S 
                                         1400     1410     1200     1210     1080     1600     1650     1700   
                                           T        V       H0       H01     AOSYM     SMH    MOLCAS    OPER   

 PROGRAMS   *        TOTAL       INT
 CPU TIMES  *         9.76      9.68
 REAL TIME  *        11.03 SEC
 DISK USED  *         2.63 GB      
 GA USED    *         0.00 MB       (max)       0.00 MB       (current)
 **********************************************************************************************************************************

1PROGRAM * RHF-SCF (CLOSED SHELL)       Authors: W. Meyer, H.-J. Werner


 NUMBER OF ELECTRONS:      16+   16-    SPACE SYMMETRY=1    SPIN SYMMETRY=Singlet 
 CONVERGENCE THRESHOLDS:    1.00E-05 (Density)    1.00E-07 (Energy)
 MAX. NUMBER OF ITERATIONS:       60
 INTERPOLATION TYPE:            DIIS
 INTERPOLATION STEPS:              2 (START)      1 (STEP)
 LEVEL SHIFTS:                  0.00 (CLOSED)  0.00 (OPEN) 



 Orbital guess generated from atomic densities. Full valence occupancy:   22

 Molecular orbital dump at record        2100.2

 ITERATION    DDIFF          GRAD             ENERGY        2-EL.EN.            DIPOLE MOMENTS         DIIS
    1      0.000D+00      0.000D+00      -263.66106043    369.650173    1.12580   -0.16404    0.31509    0
    2      0.000D+00      0.468D-02      -263.72630178    365.006553    0.65189   -0.06447    0.18705    1
    3      0.749D-02      0.317D-02      -263.76929722    367.580532    0.77127   -0.09630    0.21740    2
    4      0.308D-02      0.297D-03      -263.76978578    367.367289    0.77413   -0.09271    0.21857    3
    5      0.356D-03      0.862D-04      -263.76984236    367.370762    0.76916   -0.09478    0.21707    4
    6      0.133D-03      0.348D-04      -263.76984934    367.384427    0.76975   -0.09308    0.21728    5
    7      0.436D-04      0.883D-05      -263.76985006    367.376512    0.76935   -0.09386    0.21716    6
    8      0.145D-04      0.243D-05      -263.76985012    367.377195    0.76933   -0.09335    0.21715    7
    9      0.401D-05      0.165D-05      -263.76985012    367.377514    0.76933   -0.09372    0.21715    0

 Final occupancy:  16

 !RHF STATE 1.1 Energy               -263.769850120844
 Nuclear energy                        86.97138695
 One-electron energy                 -534.42999427
 Two-electron energy                  183.68875720
 Virial quotient                       -1.00173632
 !RHF STATE 1.1 Dipole moment           0.76932666    -0.09371944     0.21715104
 Dipole moment /Debye                   1.95530526    -0.23819546     0.55190674

 Orbital energies:

         1.1          2.1          3.1          4.1          5.1          6.1          7.1          8.1          9.1         10.1
    -20.648446   -20.647724   -20.567438   -11.456161    -1.527495    -1.474351    -1.353188    -0.796230    -0.739070    -0.718980

        11.1         12.1         13.1         14.1         15.1         16.1         17.1         18.1
     -0.711325    -0.711253    -0.583951    -0.540103    -0.540025    -0.510501     0.028227     0.045708


 **********************************************************************************************************************************
 DATASETS  * FILE   NREC   LENGTH (MB)   RECORD NAMES
              1      18        4.62       500      610      700      900      950      970     1000      129      960     1100   
                                          VAR    BASINP    GEOM    SYMINP    ZMAT    AOBASIS   BASIS     P2S    ABASIS      S 
                                         1400     1410     1200     1210     1080     1600     1650     1700   
                                           T        V       H0       H01     AOSYM     SMH    MOLCAS    OPER   

              2       3        1.44       700     1000     2100   
                                         GEOM     BASIS     RHF  

 PROGRAMS   *        TOTAL        HF       INT
 CPU TIMES  *        20.45     10.68      9.68
 REAL TIME  *        22.01 SEC
 DISK USED  *         2.66 GB      
 SF USED    *         0.21 MB      
 GA USED    *         0.00 MB       (max)       0.00 MB       (current)
 **********************************************************************************************************************************


1PROGRAM * CCSD (Closed-shell coupled cluster)     Authors: C. Hampel, H.-J. Werner, 1991, M. Deegan, P.J. Knowles, 1992

                                  CCSD-F12 implementation by  H.-J. Werner, 2007

                   Density fitting integral evaluation by F.R. Manby, 2003,2007, G. Knizia, 2010

 Basis set CC-PVTZ/JKFIT generated.      Number of basis functions:   376 
 Basis set AUG-CC-PVTZ/MP2FIT generated. Number of basis functions:   516 

 Convergence thresholds:  THRVAR = 1.00D-08  THRDEN = 1.00D-06

 CCSD(T)     terms to be evaluated (factor= 1.000)


 Number of core orbitals:           4 (   4 )
 Number of closed-shell orbitals:  12 (  12 )
 Number of external orbitals:     214 ( 214 )

 Molecular orbitals read from record     2100.2  Type=RHF/CANONICAL (state 1.1)

 MP2-F12 correlation treatment (H.-J. Werner, 2006)
 --------------------------------------------------

 Using MP2-F12 with ansatz 3C(FIX)

 Using projected zeroth-order Hamiltonian (+Z)

 FOCKRIB=T FOCKRIC=T FOCKRIP=T CABSP=T CABSA=T CABSK=T CABSF=T GBC=F EBC=F DMAT=T NOFIK=T NOPAO=1 SOLVE=-1  USEPAO=0
 EXCH_A= T EXCH_B= F EXCH_C= F EXCH_P= F
 
 Geminal basis:    OPTFULL  GEM_TYPE=SLATER  BETA=1.0  NGEM=6

 Optimizing Gaussian exponents for each gem_beta

 Geminal optimization for beta= 1.0000
 Weight function:   m=0, omega= 1.4646

 Augmented Hessian optimization of geminal fit. Trust ratio= 0.40000
 Convergence reached after   2 iterations. Final gradient= 8.24D-16, Step= 4.32D-06, Delta= 1.28D-09
 
 Alpha:                 0.19532     0.81920     2.85917     9.50073    35.69989   197.79328
 Coeff:                 0.27070     0.30552     0.18297     0.10986     0.06810     0.04224
 

 All pairs explicitly correlated. Number of r12-pairs:           78
 
 AO(A)-basis ORBITAL           loaded. Number of functions:     230
 RI(R)-basis CC-PVTZ/JKFIT     loaded. Number of functions:     376
 DF-basis CC-PVTZ/JKFIT        loaded. Number of functions:     376

 Screening thresholds:   THRAO=  1.00D-10  THRMO=  1.00D-09  THRPROD=  1.00D-09
                         THRSW=  1.00D-05  THROV=  1.00D-12  THRF12=   1.00D-08

 CPU time for Fock operators                      0.99 sec
 
 Construction of ABS:
 Smallest eigenvalue of S          2.57E-04  (threshold= 1.00E-08)
 Ratio eigmin/eigmax               1.83E-06  (threshold= 1.00E-09)
 Smallest eigenvalue of S kept     2.57E-04  (threshold= 2.57E-04, 0 functions deleted, 376 kept)
 
 Construction of CABS:
 Smallest eigenvalue of S          2.28E-08  (threshold= 1.00E-08)
 Ratio eigmin/eigmax               2.28E-08  (threshold= 1.00E-09)
 Smallest eigenvalue of S kept     2.28E-08  (threshold= 2.28E-08, 0 functions deleted, 376 kept)
 
 CPU time for CABS singles                        0.16 sec

 CABS-singles contribution of  -0.01596133 patched into reference energy.
 New reference energy        -263.78581145
 
 AO(A)-basis ORBITAL           loaded. Number of functions:     230
 RI(R)-basis CC-PVTZ/JKFIT     loaded. Number of functions:     376
 DF-basis AUG-CC-PVTZ/MP2FIT   loaded. Number of functions:     516

 Screening thresholds:   THRAO=  1.00D-10  THRMO=  1.00D-09  THRPROD=  1.00D-09
                         THRSW=  1.00D-05  THROV=  1.00D-12  THRF12=   1.00D-08

 CPU time for 3-index integral evaluation         2.33 sec
 CPU time for first  half transformation          0.20 sec (14576.4 MFLOP/sec)
 CPU time for second half transformation          0.04 sec ( 2464.7 MFLOP/sec)
 CPU time for sorting                             0.15 sec
 CPU time for fitting                             0.06 sec (23217.5 MFLOP/sec)
 CPU time for tilde quantities                    0.06 sec (30814.7 MFLOP/sec)
 CPU time for assembly                            0.87 sec (27669.3 MFLOP/sec)
 CPU time for tranop_f12                          0.95 sec (32996.2 MFLOP/sec)
 CPU time for f12 integrals (total)               6.90 sec
 F12-matrices built in  3 passes.
 F12-matrices built in  3 passes.
 F12-matrices built in  3 passes.
 F12-matrices built in  3 passes.
 FC-matrix built in  3 passes.
 CPU time for f12 matrices (total)                0.57 sec

 Diagonal F12 approximation with fixed coefficients:  TSING= 0.500,  TTRIP= 0.250 (scaled by -1/beta)

 DF-MP2-F12 energy corrections:
 ------------------------------
 Approx.                                    Singlet             Triplet             Total
 DF-MP2-F12/3*C(DX,FIX)                -0.097493830357     -0.016948972851     -0.114442803208
 DF-MP2-F12/3*C(FIX)                   -0.079894849968     -0.013406182142     -0.093301032110
 DF-MP2-F12/3C(FIX)                    -0.080253588373     -0.013429480152     -0.093683068525

 DF-MP2-F12 correlation energies:
 --------------------------------
 Approx.                                    Singlet             Triplet             Ecorr            Total Energy
 DF-MP2                                -0.537378897961     -0.342828345312     -0.880207243273   -264.666018694709
 DF-MP2-F12/3*C(DX,FIX)                -0.634872728318     -0.359777318163     -0.994650046481   -264.780461497917
 DF-MP2-F12/3*C(FIX)                   -0.617273747928     -0.356234527455     -0.973508275383   -264.759319726819
 DF-MP2-F12/3C(FIX)                    -0.617632486334     -0.356257825464     -0.973890311798   -264.759701763233

 SCS-DF-MP2 energies (F_SING= 1.20000  F_TRIP= 0.62222  F_PARALLEL= 0.33333):
 ----------------------------------------------------------------------------
 SCS-DF-MP2                            -0.858170092414   -264.643981543850
 SCS-DF-MP2-F12/3*C(DX,FIX)            -0.985708716394   -264.771520167830
 SCS-DF-MP2-F12/3*C(FIX)               -0.962385536819   -264.748196988255
 SCS-DF-MP2-F12/3C(FIX)                -0.962830519445   -264.748641970880
 Symmetry transformation completed.

 Number of N-1 electron functions:              12
 Number of N-2 electron functions:              78
 Number of singly external CSFs:              2568
 Number of doubly external CSFs:           3298596
 Total number of CSFs:                     3301165

 Pair and operator lists are different

 Length of J-op  integral file:             474.22 MB
 Length of K-op  integral file:             572.29 MB
 Length of 3-ext integral record:             0.00 MB

 For full I/O caching in triples, increase memory by 50.81 Mwords to 151.09 Mwords.

 Integral transformation finished. Total CPU:  13.67 sec, npass=  1  Memory used:  87.46 MW

 Reference energy:                   -263.78581145

 Adding F12 terms to K(Cij), methodcc=6,  factor=1.0

 ITER.      SQ.NORM     CORR.ENERGY   TOTAL ENERGY   ENERGY CHANGE        DEN1      VAR(S)    VAR(P)  DIIS     TIME
   1      1.20179209    -0.86227957  -264.64809102     0.01794394     0.04640650  0.71D-02  0.55D-02  1  1    31.61
   2      1.21602230    -0.85809300  -264.64390445     0.00418657    -0.02005275  0.85D-04  0.58D-03  2  2    40.51
   3      1.22133385    -0.85818704  -264.64399849    -0.00009404    -0.00235163  0.13D-03  0.32D-04  3  3    49.44
   4      1.22410500    -0.85806180  -264.64387325     0.00012524    -0.00140088  0.74D-05  0.40D-05  4  4    58.13
   5      1.22511892    -0.85802477  -264.64383622     0.00003703    -0.00036161  0.54D-06  0.28D-06  5  5    66.57
   6      1.22527854    -0.85799832  -264.64380977     0.00002645    -0.00000788  0.39D-07  0.23D-07  6  6    74.93
   7      1.22530739    -0.85799594  -264.64380739     0.00000238    -0.00000614  0.25D-08  0.39D-08  6  4    84.29
   8      1.22530770    -0.85799546  -264.64380691     0.00000048     0.00000191  0.38D-09  0.26D-09  6  1    93.71
   9      1.22530830    -0.85799552  -264.64380698    -0.00000007     0.00000055  0.25D-10  0.21D-10  6  2   102.82

 Norm of t1 vector:      0.10539346      S-energy:     0.00000077      T1 diagnostic:  0.01521224
                                                                       D1 diagnostic:  0.04464723

 Adding energy correction from Wij-K(Fij), methodcc=6  factor=1.0
 
  CCSD correlation energy              -0.857995523989
  MP2-F12 correction (uncoupled)       -0.092531577631
  C*T doubles correction               -0.001473278138
  f12b correction                       0.015402612556


 Total CPU time for triples:    228.61 sec


 RESULTS
 =======

  Reference energy                   -263.769850120844
  F12 singles correction               -0.015961330592

 F12 singles corrections added to reference energy

  New reference energy               -263.785811451436

  F12a singlet correction              -0.080456308004
  F12a triplet correction              -0.013548547765
  F12a total correction                -0.094004855769

 F12a corrections for ansatz F12/3C(FIX) added to CCSD energy
 
  CCSD-F12a singlet pair energy        -0.641573042576
  CCSD-F12a triplet pair energy        -0.310428104887
  CCSD-F12a correlation energy         -0.952000379758

  Triples (T) contribution             -0.037523853977
  Total correlation energy             -0.989524233735

  CCSD-F12a total energy             -264.737811831193
  CCSD[T]-F12a energy                -264.777853845476
  CCSD-T-F12a energy                 -264.774405522666
 !CCSD(T)-F12a total energy          -264.775335685170

 F12b corrections for ansatz F12/3C(FIX) added to CCSD(T)-F12a energy

  CCSD-F12b singlet pair energy        -0.627394352032
  CCSD-F12b triplet pair energy        -0.309204182876
  CCSD-F12b correlation energy         -0.936597767202

  Triples (T) contribution             -0.037523853977
  Total correlation energy             -0.974121621179

  CCSD-F12b total energy             -264.722409218638
  CCSD[T]-F12b energy                -264.762451232920
  CCSD-T-F12b energy                 -264.759002910111
 !CCSD(T)-F12b total energy          -264.759933072615

 Timing summary (sec):

 STEP                 CPU(USER)    SYS     CPU(TOT)    WALL
 Transformation         13.78      1.11     14.89     14.89
 CCSD iterations        79.84      3.06     82.90     82.86
 Triples               228.61      2.50    231.11    231.03
 MP2-F12                 9.22      1.47     10.69     10.84
 F12b energy             6.27      0.06      6.33      6.32

 Program statistics:

 Available memory in ccsd:                99998934
 Min. memory needed in ccsd:               8644845
 Max. memory used in ccsd:                11598633
 Max. memory used in cckext:               8768967 (10 integral passes)



 **********************************************************************************************************************************
 DATASETS  * FILE   NREC   LENGTH (MB)   RECORD NAMES
              1      20      527.84       500      610      700      900      950      970     1000      129      960     1100   
                                          VAR    BASINP    GEOM    SYMINP    ZMAT    AOBASIS   BASIS     P2S    ABASIS      S 
                                         1400     1410     1200     1210     1080     1600     1650     1700      960(1)  1380   
                                           T        V       H0       H01     AOSYM     SMH    MOLCAS    OPER    ABASIS    JKOP   

              2       5        2.50       700     1000     2100     7360     7350   
                                         GEOM     BASIS     RHF    F12ABS    EF12   

 PROGRAMS   *        TOTAL   CCSD(T)        HF       INT
 CPU TIMES  *       358.45    338.00     10.68      9.68
 REAL TIME  *       368.41 SEC
 DISK USED  *         3.53 GB      
 SF USED    *         1.91 GB      
 GA USED    *         2.40 MB       (max)       0.00 MB       (current)
 **********************************************************************************************************************************

     CCSD(T)-F12        HF-SCF  
   -264.75993307   -263.76985012
 **********************************************************************************************************************************
 Variable memory released
