
 Primary working directories    : /scratch/kee
 Secondary working directories  : /scratch/kee
 Wavefunction directory         : /home/kee/wfu/
 Main file repository           : /scratch/kee/

 ARCHNAME  : Linux/x86_64
 FC        : /opt/intel/composer_xe_2015.0.090/bin/intel64/ifort
 FCVERSION : 15.0.0
 BLASLIB   : -L/opt/intel/mkl/lib/intel64 -lmkl_intel_ilp64 -lmkl_sequential -lmkl_core
 id        : emory

 Nodes     nprocs
 node24       3
 Number of processes for MPI-2 version of Molpro:   nprocs(total)=    4   nprocs(compute)=    3   nprocs(helper)=    1
 ga_uses_ma=false, calling ma_init with nominal heap.
 GA-space will be limited to   8.0 MW (determined by -G option)

 Using customized tuning parameters: mindgm=7; mindgv=32; mindgc=1; mindgr=1; noblas=0; mincuda=1000; minvec=7
 default implementation of scratch files=sf  

 ***,co2h2o
 memory,100,m
 basis avtz
 geomtype = xyz
 geometry = {
 6
       0.00000000
 O     0.00351000    1.16210700    0.00000000
 O     0.00351000   -1.16210700    0.00000000
 O     6.71968000    0.00000000    0.00000000
 H     7.30589800    0.00000000    0.75853100
 H     7.30589800    0.00000000   -0.75853100
 C     0.01968000    0.00000000    0.00000000
 }
 hf
 ccsd(t)-f12
 ---

 Variables initialized (665), CPU time= 0.00 sec
 Commands  initialized (462), CPU time= 0.01 sec, 486 directives.
 Default parameters read. Elapsed time= 0.05 sec

 Checking input...
 Passed
1


                                         ***  PROGRAM SYSTEM MOLPRO  ***
                         Copyright, University College Cardiff Consultants Limited, 2008

                                    Version 2010.1 linked 9 Dec 2014 15:06:28 


 **********************************************************************************************************************************
 LABEL *   co2h2o                                                                        
 Linux-2.6.32-504.el6.x86_64/node24(x86_64) 64 bit mpp version                           DATE: 12-Dec-16          TIME: 14:14:41  
 **********************************************************************************************************************************

 Patch level:      19
 **********************************************************************************************************************************

 Variable memory set to  100000000 words,  buffer space   230000 words

 SETTING BASIS          =    AVTZ
 SETTING GEOMTYPE       =    XYZ

Geometry recognized as XYZ



 Recomputing integrals since basis changed


 Using spherical harmonics

 Library entry O      S aug-cc-pVTZ          selected for orbital group  1
 Library entry O      P aug-cc-pVTZ          selected for orbital group  1
 Library entry O      D aug-cc-pVTZ          selected for orbital group  1
 Library entry O      F aug-cc-pVTZ          selected for orbital group  1
 Library entry H      S aug-cc-pVTZ          selected for orbital group  2
 Library entry H      P aug-cc-pVTZ          selected for orbital group  2
 Library entry H      D aug-cc-pVTZ          selected for orbital group  2
 Library entry C      S aug-cc-pVTZ          selected for orbital group  3
 Library entry C      P aug-cc-pVTZ          selected for orbital group  3
 Library entry C      D aug-cc-pVTZ          selected for orbital group  3
 Library entry C      F aug-cc-pVTZ          selected for orbital group  3

1PROGRAM * SEWARD (Integral evaluation for generally contracted gaussian basis sets)     Author: Roland Lindh, 1990

 Geometry written to block  1 of record 700


 Point group  C2v 



 ATOMIC COORDINATES

 NR  ATOM    CHARGE       X              Y              Z

   1  O       8.00    0.006632939    2.196063965    0.000000000
   2  O       8.00    0.006632939   -2.196063965    0.000000000
   3  O       8.00   12.698354891    0.000000000    0.000000000
   4  H       1.00   13.806146364    0.000000000    1.433415852
   5  H       1.00   13.806146364    0.000000000   -1.433415852
   6  C       6.00    0.037189810    0.000000000    0.000000000

 Bond lengths in Bohr (Angstrom)

 1-6  2.196276545  2-6  2.196276545  3-4  1.811596797  3-5  1.811596797
     (1.162219492)     (1.162219492)     (0.958655737)     (0.958655737)

 Bond angles

  1-6-2  178.40563223   4-3-5  104.60391356

 NUCLEAR CHARGE:                   32
 NUMBER OF PRIMITIVE AOS:         322
 NUMBER OF SYMMETRY AOS:          282
 NUMBER OF CONTRACTIONS:          230   (  84A1  +  59B1  +  54B2  +  33A2  )
 NUMBER OF CORE ORBITALS:           4   (   3A1  +   1B1  +   0B2  +   0A2  )
 NUMBER OF VALENCE ORBITALS:       18   (   8A1  +   5B1  +   4B2  +   1A2  )


 NUCLEAR REPULSION ENERGY   84.33642721


 Eigenvalues of metric

         1 0.374E-03 0.394E-03 0.899E-03 0.175E-02 0.317E-02 0.320E-02 0.403E-02 0.485E-02
         2 0.349E-03 0.922E-03 0.175E-02 0.346E-02 0.590E-02 0.744E-02 0.202E-01 0.213E-01
         3 0.394E-03 0.166E-02 0.318E-02 0.508E-02 0.622E-02 0.100E-01 0.136E-01 0.156E-01
         4 0.348E-02 0.124E-01 0.296E-01 0.363E-01 0.561E-01 0.679E-01 0.110E+00 0.139E+00


 Contracted 2-electron integrals neglected if value below      1.0D-11
 AO integral compression algorithm  1   Integral accuracy      1.0D-11

     195.035 MB (compressed) written to integral file ( 24.1%)

     Node minimum: 59.245 MB, node maximum: 72.090 MB


 NUMBER OF SORTED TWO-ELECTRON INTEGRALS:   29979201.     BUFFER LENGTH:  32768
 NUMBER OF SEGMENTS:   2  SEGMENT LENGTH:   15996954      RECORD LENGTH: 524288

 Memory used in sort:      16.55 MW

 SORT1 READ   101022416. AND WROTE    12562207. INTEGRALS IN     37 RECORDS. CPU TIME:     1.85 SEC, REAL TIME:     2.21 SEC
 SORT2 READ    37703723. AND WROTE    89930217. INTEGRALS IN    729 RECORDS. CPU TIME:     0.54 SEC, REAL TIME:     0.69 SEC

 Node minimum:    29974277.  Node maximum:    29979201. integrals

 OPERATOR DM      FOR CENTER  0  COORDINATES:    0.000000    0.000000    0.000000


 **********************************************************************************************************************************
 DATASETS  * FILE   NREC   LENGTH (MB)   RECORD NAMES
              1      18        3.23       500      610      700      900      950      970     1000      129      960     1100   
                                          VAR    BASINP    GEOM    SYMINP    ZMAT    AOBASIS   BASIS     P2S    ABASIS      S 
                                         1400     1410     1200     1210     1080     1600     1650     1700   
                                           T        V       H0       H01     AOSYM     SMH    MOLCAS    OPER   

 PROGRAMS   *        TOTAL       INT
 CPU TIMES  *         4.35      4.21
 REAL TIME  *         5.35 SEC
 DISK USED  *       637.42 MB      
 GA USED    *         0.00 MB       (max)       0.00 MB       (current)
 **********************************************************************************************************************************

1PROGRAM * RHF-SCF (CLOSED SHELL)       Authors: W. Meyer, H.-J. Werner


 NUMBER OF ELECTRONS:      16+   16-
 CONVERGENCE THRESHOLDS:    1.00E-05 (Density)    1.00E-07 (Energy)
 MAX. NUMBER OF ITERATIONS:       60
 INTERPOLATION TYPE:            DIIS
 INTERPOLATION STEPS:              2 (START)      1 (STEP)
 LEVEL SHIFTS:                  0.00 (CLOSED)  0.00 (OPEN) 



 Orbital guess generated from atomic densities. Full valence occupancy:   11   6   4   1

 Molecular orbital dump at record        2100.2

 Initial alpha occupancy:   8   5   2   1
 Initial beta  occupancy:   8   5   2   1
 Wave function symmetry:    1

 ITERATION    DDIFF          GRAD             ENERGY        2-EL.EN.            DIPOLE MOMENTS         DIIS
    1      0.000D+00      0.000D+00      -263.66057117    364.340276    1.18063    0.00000    0.00000    0
    2      0.000D+00      0.888D-02      -263.72582133    359.726149    0.69375    0.00000    0.00000    1
    3      0.143D-01      0.603D-02      -263.76905245    362.293724    0.81397    0.00000    0.00000    2
    4      0.587D-02      0.568D-03      -263.76954757    362.082356    0.81740    0.00000    0.00000    3
    5      0.695D-03      0.165D-03      -263.76960562    362.084037    0.81203    0.00000    0.00000    4
    6      0.258D-03      0.667D-04      -263.76961281    362.098613    0.81275    0.00000    0.00000    5
    7      0.856D-04      0.163D-04      -263.76961354    362.090233    0.81230    0.00000    0.00000    6
    8      0.281D-04      0.359D-05      -263.76961359    362.091537    0.81231    0.00000    0.00000    7
    9      0.768D-05      0.121D-05      -263.76961359    362.091342    0.81228    0.00000    0.00000    0

 Final occupancy:   8   5   2   1

 !RHF STATE 1.1 Energy               -263.769613591269
 Nuclear energy                        84.33642721
 One-electron energy                 -529.15171180
 Two-electron energy                  181.04567100
 Virial quotient                       -1.00182838
 !RHF STATE 1.1 Dipole moment           0.81228169     0.00000000     0.00000000
 Dipole moment /Debye                   2.06447890     0.00000000     0.00000000

 Orbital energies:

         1.1          2.1          3.1          4.1          5.1          6.1          7.1          8.1          9.1         10.1
    -20.648841   -20.568419   -11.457705    -1.526499    -1.353828    -0.796809    -0.710512    -0.585609     0.028204     0.052661

         1.2          2.2          3.2          4.2          5.2          6.2          7.2
    -20.648886    -1.473425    -0.739061    -0.540207    -0.511254     0.082306     0.150556

         1.3          2.3          3.3          4.3
     -0.718268    -0.710599     0.046722     0.077785

         1.4          2.4          3.4
     -0.540264     0.167408     0.264509


 **********************************************************************************************************************************
 DATASETS  * FILE   NREC   LENGTH (MB)   RECORD NAMES
              1      18        3.25       500      610      700      900      950      970     1000      129      960     1100   
                                          VAR    BASINP    GEOM    SYMINP    ZMAT    AOBASIS   BASIS     P2S    ABASIS      S 
                                         1400     1410     1200     1210     1080     1600     1650     1700   
                                           T        V       H0       H01     AOSYM     SMH    MOLCAS    OPER   

              2       3        0.67       700     1000     2100   
                                         GEOM     BASIS     RHF  

 PROGRAMS   *        TOTAL        HF       INT
 CPU TIMES  *         5.67      1.31      4.21
 REAL TIME  *         6.73 SEC
 DISK USED  *       654.81 MB      
 SF USED    *         0.06 MB      
 GA USED    *         0.00 MB       (max)       0.00 MB       (current)
 **********************************************************************************************************************************


1PROGRAM * CCSD (Closed-shell coupled cluster)     Authors: C. Hampel, H.-J. Werner, 1991, M. Deegan, P.J. Knowles, 1992

                                  CCSD-F12 implementation by  H.-J. Werner, 2007

                   Density fitting integral evaluation by F.R. Manby, 2003,2007, G. Knizia, 2010

 Basis set CC-PVTZ/JKFIT generated.      Number of basis functions:   376 
 Basis set AUG-CC-PVTZ/MP2FIT generated. Number of basis functions:   516 

 Convergence thresholds:  THRVAR = 1.00D-08  THRDEN = 1.00D-06

 CCSD(T)     terms to be evaluated (factor= 1.000)


 Number of core orbitals:           4 (   3   1   0   0 )
 Number of closed-shell orbitals:  12 (   5   4   2   1 )
 Number of external orbitals:     214 (  76  54  52  32 )

 Molecular orbitals read from record     2100.2  Type=RHF/CANONICAL (state 1.1)

 MP2-F12 correlation treatment (H.-J. Werner, 2006)
 --------------------------------------------------

 Using MP2-F12 with ansatz 3C(FIX)

 Using projected zeroth-order Hamiltonian (+Z)

 FOCKRIB=T FOCKRIC=T FOCKRIP=T CABSP=T CABSA=T CABSK=T CABSF=T GBC=F EBC=F DMAT=T NOFIK=T NOPAO=1 SOLVE=-1  USEPAO=0
 EXCH_A= T EXCH_B= F EXCH_C= F EXCH_P= F
 
 Geminal basis:    OPTFULL  GEM_TYPE=SLATER  BETA=1.0  NGEM=6

 Optimizing Gaussian exponents for each gem_beta

 Geminal optimization for beta= 1.0000
 Weight function:   m=0, omega= 1.4646

 Augmented Hessian optimization of geminal fit. Trust ratio= 0.40000
 Convergence reached after   2 iterations. Final gradient= 8.24D-16, Step= 4.32D-06, Delta= 1.28D-09
 
 Alpha:                 0.19532     0.81920     2.85917     9.50073    35.69989   197.79328
 Coeff:                 0.27070     0.30552     0.18297     0.10986     0.06810     0.04224
 

 Symmetry turned off. Reference energy:       -263.769613591269

 All pairs explicitly correlated. Number of r12-pairs:           78
 
 AO(A)-basis ORBITAL           loaded. Number of functions:     230
 RI(R)-basis CC-PVTZ/JKFIT     loaded. Number of functions:     376
 DF-basis CC-PVTZ/JKFIT        loaded. Number of functions:     376

 Screening thresholds:   THRAO=  1.00D-10  THRMO=  1.00D-09  THRPROD=  1.00D-09
                         THRSW=  1.00D-05  THROV=  1.00D-12  THRF12=   1.00D-08

 CPU time for Fock operators                      1.19 sec
 
 Construction of ABS:
 Smallest eigenvalue of S          2.57E-04  (threshold= 1.00E-08)
 Ratio eigmin/eigmax               1.83E-06  (threshold= 1.00E-09)
 Smallest eigenvalue of S kept     2.57E-04  (threshold= 2.57E-04, 0 functions deleted, 376 kept)
 
 Construction of CABS:
 Smallest eigenvalue of S          2.30E-08  (threshold= 1.00E-08)
 Ratio eigmin/eigmax               2.30E-08  (threshold= 1.00E-09)
 Smallest eigenvalue of S kept     2.30E-08  (threshold= 2.30E-08, 0 functions deleted, 376 kept)
 
 CPU time for CABS singles                        0.19 sec

 CABS-singles contribution of  -0.01592286 patched into reference energy.
 New reference energy        -263.78553645
 
 AO(A)-basis ORBITAL           loaded. Number of functions:     230
 RI(R)-basis CC-PVTZ/JKFIT     loaded. Number of functions:     376
 DF-basis AUG-CC-PVTZ/MP2FIT   loaded. Number of functions:     516

 Screening thresholds:   THRAO=  1.00D-10  THRMO=  1.00D-09  THRPROD=  1.00D-09
                         THRSW=  1.00D-05  THROV=  1.00D-12  THRF12=   1.00D-08

 CPU time for 3-index integral evaluation         2.16 sec
 CPU time for first  half transformation          0.24 sec (10060.4 MFLOP/sec)
 CPU time for second half transformation          0.03 sec ( 3064.4 MFLOP/sec)
 CPU time for sorting                             0.15 sec
 CPU time for fitting                             0.05 sec (27861.0 MFLOP/sec)
 CPU time for tilde quantities                    0.06 sec (30814.7 MFLOP/sec)
 CPU time for assembly                            0.91 sec (25967.0 MFLOP/sec)
 CPU time for tranop_f12                          1.04 sec (30010.8 MFLOP/sec)
 CPU time for f12 integrals (total)               6.93 sec
 F12-matrices built in  3 passes.
 F12-matrices built in  3 passes.
 F12-matrices built in  3 passes.
 F12-matrices built in  3 passes.
 FC-matrix built in  3 passes.
 CPU time for f12 matrices (total)                0.57 sec

 Diagonal F12 approximation with fixed coefficients:  TSING= 0.500,  TTRIP= 0.250 (scaled by -1/beta)

 DF-MP2-F12 energy corrections:
 ------------------------------
 Approx.                                    Singlet             Triplet             Total
 DF-MP2-F12/3*C(DX,FIX)                -0.097447493844     -0.016933173546     -0.114380667391
 DF-MP2-F12/3*C(FIX)                   -0.079863427284     -0.013395297650     -0.093258724934
 DF-MP2-F12/3C(FIX)                    -0.080224259730     -0.013418615383     -0.093642875113

 DF-MP2-F12 correlation energies:
 --------------------------------
 Approx.                                    Singlet             Triplet             Ecorr            Total Energy
 DF-MP2                                -0.537733815396     -0.343078862306     -0.880812677702   -264.666349128294
 DF-MP2-F12/3*C(DX,FIX)                -0.635181309241     -0.360012035852     -0.995193345092   -264.780729795684
 DF-MP2-F12/3*C(FIX)                   -0.617597242680     -0.356474159956     -0.974071402636   -264.759607853228
 DF-MP2-F12/3C(FIX)                    -0.617958075126     -0.356497477689     -0.974455552815   -264.759992003406

 SCS-DF-MP2 energies (F_SING= 1.20000  F_TRIP= 0.62222  F_PARALLEL= 0.33333):
 ----------------------------------------------------------------------------
 SCS-DF-MP2                            -0.858751870577   -264.644288321168
 SCS-DF-MP2-F12/3*C(DX,FIX)            -0.986225060063   -264.771761510655
 SCS-DF-MP2-F12/3*C(FIX)               -0.962922835189   -264.748459285781
 SCS-DF-MP2-F12/3C(FIX)                -0.963370342935   -264.748906793527

 Symmetry restored.
 Symmetry transformation completed.

 Number of N-1 electron functions:              12
 Number of N-2 electron functions:              78
 Number of singly external CSFs:               732
 Number of doubly external CSFs:            836016
 Total number of CSFs:                      836749

 Pair and operator lists are different

 Length of J-op  integral file:             462.26 MB
 Length of K-op  integral file:             502.03 MB
 Length of 3-ext integral record:             0.00 MB

 Memory could be reduced to 38.69 Mwords without degradation in triples

 Integral transformation finished. Total CPU:   1.56 sec, npass=  1  Memory used:   6.07 MW

 Reference energy:                   -263.78553645

 Adding F12 terms to K(Cij), methodcc=6,  factor=1.0

 ITER.      SQ.NORM     CORR.ENERGY   TOTAL ENERGY   ENERGY CHANGE        DEN1      VAR(S)    VAR(P)  DIIS     TIME
   1      1.20214982    -0.86276475  -264.64830120     0.01806436     0.04669599  0.72D-02  0.56D-02  1  1    11.92
   2      1.21646251    -0.85853863  -264.64407508     0.00422612    -0.02015241  0.86D-04  0.59D-03  2  2    12.97
   3      1.22182409    -0.85863511  -264.64417156    -0.00009648    -0.00236451  0.13D-03  0.32D-04  3  3    14.05
   4      1.22462659    -0.85850727  -264.64404372     0.00012784    -0.00141157  0.76D-05  0.41D-05  4  4    15.18
   5      1.22565676    -0.85846958  -264.64400604     0.00003768    -0.00036641  0.56D-06  0.29D-06  5  5    16.28
   6      1.22581895    -0.85844272  -264.64397917     0.00002686    -0.00000805  0.40D-07  0.24D-07  6  6    17.35
   7      1.22584831    -0.85844030  -264.64397675     0.00000242    -0.00000622  0.25D-08  0.40D-08  6  4    18.44
   8      1.22584861    -0.85843981  -264.64397626     0.00000049     0.00000195  0.39D-09  0.27D-09  6  1    19.54
   9      1.22584922    -0.85843987  -264.64397632    -0.00000007     0.00000056  0.25D-10  0.21D-10  6  2    20.59

 Norm of t1 vector:      0.10597154      S-energy:    -0.00000003      T1 diagnostic:  0.01529567
                                                                       D1 diagnostic:  0.04496021

 Adding energy correction from Wij-K(Fij), methodcc=6  factor=1.0
 
  CCSD correlation energy              -0.858439874115
  MP2-F12 correction (uncoupled)       -0.092486259473
  C*T doubles correction               -0.001475511139
  f12b correction                       0.015406653558


 Total CPU time for triples:     29.46 sec


 RESULTS
 =======

  Reference energy                   -263.769613591269
  F12 singles correction               -0.015922859322

 F12 singles corrections added to reference energy

  New reference energy               -263.785536450592

  F12a singlet correction              -0.080424530135
  F12a triplet correction              -0.013537240477
  F12a total correction                -0.093961770612

 F12a corrections for ansatz F12/3C(FIX) added to CCSD energy
 
  CCSD-F12a singlet pair energy        -0.641896031047
  CCSD-F12a triplet pair energy        -0.310505586554
  CCSD-F12a correlation energy         -0.952401644726

  Triples (T) contribution             -0.037640584286
  Total correlation energy             -0.990042229012

  CCSD-F12a total energy             -264.737938095318
  CCSD[T]-F12a energy                -264.778122224651
  CCSD-T-F12a energy                 -264.774641182156
 !CCSD(T)-F12a total energy          -264.775578679604

 F12b corrections for ansatz F12/3C(FIX) added to CCSD(T)-F12a energy

  CCSD-F12b singlet pair energy        -0.627712670273
  CCSD-F12b triplet pair energy        -0.309282293769
  CCSD-F12b correlation energy         -0.936994991168

  Triples (T) contribution             -0.037640584286
  Total correlation energy             -0.974635575454

  CCSD-F12b total energy             -264.722531441760
  CCSD[T]-F12b energy                -264.762715571092
  CCSD-T-F12b energy                 -264.759234528598
 !CCSD(T)-F12b total energy          -264.760172026045

 Timing summary (sec):

 STEP                 CPU(USER)    SYS     CPU(TOT)    WALL
 Transformation          1.57      0.25      1.82      3.54
 CCSD iterations         9.70      0.76     10.46     10.96
 Triples                29.46      0.79     30.25     30.25
 MP2-F12                 9.34      1.30     10.64     11.04
 F12b energy             0.61      0.02      0.63      0.63

 Program statistics:

 Available memory in ccsd:                99998934
 Min. memory needed in ccsd:               2244783
 Max. memory used in ccsd:                 3005571
 Max. memory used in cckext:               2769663 (10 integral passes)



 **********************************************************************************************************************************
 DATASETS  * FILE   NREC   LENGTH (MB)   RECORD NAMES
              1      20      137.19       500      610      700      900      950      970     1000      129      960     1100   
                                          VAR    BASINP    GEOM    SYMINP    ZMAT    AOBASIS   BASIS     P2S    ABASIS      S 
                                         1400     1410     1200     1210     1080     1600     1650     1700      960(1)  1380   
                                           T        V       H0       H01     AOSYM     SMH    MOLCAS    OPER    ABASIS    JKOP   

              2       5        0.97       700     1000     2100     7360     7350   
                                         GEOM     BASIS     RHF    F12ABS    EF12   

 PROGRAMS   *        TOTAL   CCSD(T)        HF       INT
 CPU TIMES  *        56.39     50.72      1.31      4.21
 REAL TIME  *        63.43 SEC
 DISK USED  *       876.48 MB      
 SF USED    *         1.33 GB      
 GA USED    *         2.40 MB       (max)       0.00 MB       (current)
 **********************************************************************************************************************************

     CCSD(T)-F12        HF-SCF  
   -264.76017203   -263.76961359
 **********************************************************************************************************************************
 Variable memory released
