
 Primary working directories    : /scratch/kee
 Secondary working directories  : /scratch/kee
 Wavefunction directory         : /home/kee/wfu/
 Main file repository           : /scratch/kee/

 ARCHNAME  : Linux/x86_64
 FC        : /opt/intel/composer_xe_2015.0.090/bin/intel64/ifort
 FCVERSION : 15.0.0
 BLASLIB   : -L/opt/intel/mkl/lib/intel64 -lmkl_intel_ilp64 -lmkl_sequential -lmkl_core
 id        : emory

 Nodes     nprocs
 node21       3
 Number of processes for MPI-2 version of Molpro:   nprocs(total)=    4   nprocs(compute)=    3   nprocs(helper)=    1
 ga_uses_ma=false, calling ma_init with nominal heap.
 GA-space will be limited to   8.0 MW (determined by -G option)

 Using customized tuning parameters: mindgm=7; mindgv=32; mindgc=1; mindgr=1; noblas=0; mincuda=1000; minvec=7
 default implementation of scratch files=sf  

 ***,co2h2o
 memory,100,m
 basis avtz
 geomtype = xyz
 geometry = {
 6
       0.00000777
 O    10.97257393   -1.10347931    0.00000000
 O    11.76744404    1.08065151   -0.00000000
 O    -5.65643718   -0.00000000    0.00000000
 H    -6.40443226    0.58340495    0.10287003
 H    -4.90401198    0.58686026    0.10347930
 C    11.34356282    0.00000000    0.00000000
 }
 hf
 ccsd(t)-f12
 ---

 Variables initialized (665), CPU time= 0.00 sec
 Commands  initialized (462), CPU time= 0.01 sec, 486 directives.
 Default parameters read. Elapsed time= 0.04 sec

 Checking input...
 Passed
1


                                         ***  PROGRAM SYSTEM MOLPRO  ***
                         Copyright, University College Cardiff Consultants Limited, 2008

                                    Version 2010.1 linked 9 Dec 2014 15:06:28 


 **********************************************************************************************************************************
 LABEL *   co2h2o                                                                        
 Linux-2.6.32-504.el6.x86_64/node21(x86_64) 64 bit mpp version                           DATE: 18-Jan-17          TIME: 20:52:44  
 **********************************************************************************************************************************

 Patch level:      19
 **********************************************************************************************************************************

 Variable memory set to  100000000 words,  buffer space   230000 words

 SETTING BASIS          =    AVTZ
 SETTING GEOMTYPE       =    XYZ

Geometry recognized as XYZ



 Recomputing integrals since basis changed


 Using spherical harmonics

 Library entry O      S aug-cc-pVTZ          selected for orbital group  1
 Library entry O      P aug-cc-pVTZ          selected for orbital group  1
 Library entry O      D aug-cc-pVTZ          selected for orbital group  1
 Library entry O      F aug-cc-pVTZ          selected for orbital group  1
 Library entry H      S aug-cc-pVTZ          selected for orbital group  2
 Library entry H      P aug-cc-pVTZ          selected for orbital group  2
 Library entry H      D aug-cc-pVTZ          selected for orbital group  2
 Library entry C      S aug-cc-pVTZ          selected for orbital group  3
 Library entry C      P aug-cc-pVTZ          selected for orbital group  3
 Library entry C      D aug-cc-pVTZ          selected for orbital group  3
 Library entry C      F aug-cc-pVTZ          selected for orbital group  3

1PROGRAM * SEWARD (Integral evaluation for generally contracted gaussian basis sets)     Author: Roland Lindh, 1990

 Geometry written to block  1 of record 700


 Point group  C1  



 ATOMIC COORDINATES

 NR  ATOM    CHARGE       X              Y              Z

   1  O       8.00   20.735159684   -2.085273688    0.000000000
   2  O       8.00   22.237246502    2.042135397    0.000000000
   3  O       8.00  -10.689117150    0.000000000    0.000000000
   4  H       1.00  -12.102622999    1.102475579    0.194396184
   5  H       1.00   -9.267239587    1.109005169    0.195547537
   6  C       6.00   21.436227084    0.000000000    0.000000000

 Bond lengths in Bohr (Angstrom)

 1-6  2.199968602  2-6  2.193615529  3-4  1.803119814  3-5  1.813799081
     (1.164173245)     (1.160811343)     (0.954169911)     (0.959821135)

 Bond angles

  1-6-2  177.16520951   4-3-5  103.24222917

 NUCLEAR CHARGE:                   32
 NUMBER OF PRIMITIVE AOS:         322
 NUMBER OF SYMMETRY AOS:          282
 NUMBER OF CONTRACTIONS:          230   ( 230A   )
 NUMBER OF CORE ORBITALS:           4   (   4A   )
 NUMBER OF VALENCE ORBITALS:       18   (  18A   )


 NUCLEAR REPULSION ENERGY   74.30611778


 Eigenvalues of metric

         1 0.350E-03 0.385E-03 0.395E-03 0.420E-03 0.904E-03 0.923E-03 0.164E-02 0.176E-02


 Contracted 2-electron integrals neglected if value below      1.0D-11
 AO integral compression algorithm  1   Integral accuracy      1.0D-11

     311.427 MB (compressed) written to integral file ( 29.1%)

     Node minimum: 78.119 MB, node maximum: 122.683 MB


 NUMBER OF SORTED TWO-ELECTRON INTEGRALS:  117629820.     BUFFER LENGTH:  32768
 NUMBER OF SEGMENTS:   8  SEGMENT LENGTH:   15997437      RECORD LENGTH: 524288

 Memory used in sort:      16.55 MW

 SORT1 READ   133717585. AND WROTE    21774232. INTEGRALS IN     66 RECORDS. CPU TIME:     1.43 SEC, REAL TIME:     1.66 SEC
 SORT2 READ    65037004. AND WROTE   352862895. INTEGRALS IN   1404 RECORDS. CPU TIME:     0.78 SEC, REAL TIME:     0.98 SEC

 Node minimum:   117612110.  Node maximum:   117629820. integrals

 OPERATOR DM      FOR CENTER  0  COORDINATES:    0.000000    0.000000    0.000000


 **********************************************************************************************************************************
 DATASETS  * FILE   NREC   LENGTH (MB)   RECORD NAMES
              1      18        4.62       500      610      700      900      950      970     1000      129      960     1100   
                                          VAR    BASINP    GEOM    SYMINP    ZMAT    AOBASIS   BASIS     P2S    ABASIS      S 
                                         1400     1410     1200     1210     1080     1600     1650     1700   
                                           T        V       H0       H01     AOSYM     SMH    MOLCAS    OPER   

 PROGRAMS   *        TOTAL       INT
 CPU TIMES  *         4.12      4.05
 REAL TIME  *         4.69 SEC
 DISK USED  *         1.11 GB      
 GA USED    *         0.00 MB       (max)       0.00 MB       (current)
 **********************************************************************************************************************************

1PROGRAM * RHF-SCF (CLOSED SHELL)       Authors: W. Meyer, H.-J. Werner


 NUMBER OF ELECTRONS:      16+   16-    SPACE SYMMETRY=1    SPIN SYMMETRY=Singlet 
 CONVERGENCE THRESHOLDS:    1.00E-05 (Density)    1.00E-07 (Energy)
 MAX. NUMBER OF ITERATIONS:       60
 INTERPOLATION TYPE:            DIIS
 INTERPOLATION STEPS:              2 (START)      1 (STEP)
 LEVEL SHIFTS:                  0.00 (CLOSED)  0.00 (OPEN) 



 Orbital guess generated from atomic densities. Full valence occupancy:   22

 Molecular orbital dump at record        2100.2

 ITERATION    DDIFF          GRAD             ENERGY        2-EL.EN.            DIPOLE MOMENTS         DIIS
    1      0.000D+00      0.000D+00      -263.65953068    344.000138   -0.06882    1.17033    0.19888    0
    2      0.000D+00      0.469D-02      -263.72503896    339.482138   -0.01046    0.67522    0.11740    1
    3      0.752D-02      0.319D-02      -263.76858966    342.034807   -0.03294    0.79991    0.13684    2
    4      0.310D-02      0.300D-03      -263.76908629    341.821453   -0.03206    0.80259    0.13771    3
    5      0.356D-03      0.874D-04      -263.76914485    341.824655   -0.03185    0.79827    0.13673    4
    6      0.133D-03      0.354D-04      -263.76915212    341.838984   -0.03193    0.79836    0.13688    5
    7      0.443D-04      0.870D-05      -263.76915286    341.830796   -0.03183    0.79830    0.13681    6
    8      0.144D-04      0.204D-05      -263.76915291    341.831961   -0.03193    0.79805    0.13681    7
    9      0.398D-05      0.114D-05      -263.76915291    341.831906   -0.03184    0.79826    0.13680    0

 Final occupancy:  16

 !RHF STATE 1.1 Energy               -263.769152912722
 Nuclear energy                        74.30611778
 One-electron energy                 -508.99122366
 Two-electron energy                  170.91595296
 Virial quotient                       -1.00179948
 !RHF STATE 1.1 Dipole moment          -0.03184407     0.79826490     0.13680403
 Dipole moment /Debye                  -0.08093425     2.02885411     0.34769839

 Orbital energies:

         1.1          2.1          3.1          4.1          5.1          6.1          7.1          8.1          9.1         10.1
    -20.654123   -20.653016   -20.567769   -11.462446    -1.531090    -1.477789    -1.354735    -0.801436    -0.743534    -0.715559

        11.1         12.1         13.1         14.1         15.1         16.1         17.1         18.1
     -0.715111    -0.715094    -0.587561    -0.544813    -0.544759    -0.510823     0.029287     0.047141


 **********************************************************************************************************************************
 DATASETS  * FILE   NREC   LENGTH (MB)   RECORD NAMES
              1      18        4.62       500      610      700      900      950      970     1000      129      960     1100   
                                          VAR    BASINP    GEOM    SYMINP    ZMAT    AOBASIS   BASIS     P2S    ABASIS      S 
                                         1400     1410     1200     1210     1080     1600     1650     1700   
                                           T        V       H0       H01     AOSYM     SMH    MOLCAS    OPER   

              2       3        1.44       700     1000     2100   
                                         GEOM     BASIS     RHF  

 PROGRAMS   *        TOTAL        HF       INT
 CPU TIMES  *        10.47      6.36      4.05
 REAL TIME  *        11.18 SEC
 DISK USED  *         1.15 GB      
 SF USED    *         0.21 MB      
 GA USED    *         0.00 MB       (max)       0.00 MB       (current)
 **********************************************************************************************************************************


1PROGRAM * CCSD (Closed-shell coupled cluster)     Authors: C. Hampel, H.-J. Werner, 1991, M. Deegan, P.J. Knowles, 1992

                                  CCSD-F12 implementation by  H.-J. Werner, 2007

                   Density fitting integral evaluation by F.R. Manby, 2003,2007, G. Knizia, 2010

 Basis set CC-PVTZ/JKFIT generated.      Number of basis functions:   376 
 Basis set AUG-CC-PVTZ/MP2FIT generated. Number of basis functions:   516 

 Convergence thresholds:  THRVAR = 1.00D-08  THRDEN = 1.00D-06

 CCSD(T)     terms to be evaluated (factor= 1.000)


 Number of core orbitals:           4 (   4 )
 Number of closed-shell orbitals:  12 (  12 )
 Number of external orbitals:     214 ( 214 )

 Molecular orbitals read from record     2100.2  Type=RHF/CANONICAL (state 1.1)

 MP2-F12 correlation treatment (H.-J. Werner, 2006)
 --------------------------------------------------

 Using MP2-F12 with ansatz 3C(FIX)

 Using projected zeroth-order Hamiltonian (+Z)

 FOCKRIB=T FOCKRIC=T FOCKRIP=T CABSP=T CABSA=T CABSK=T CABSF=T GBC=F EBC=F DMAT=T NOFIK=T NOPAO=1 SOLVE=-1  USEPAO=0
 EXCH_A= T EXCH_B= F EXCH_C= F EXCH_P= F
 
 Geminal basis:    OPTFULL  GEM_TYPE=SLATER  BETA=1.0  NGEM=6

 Optimizing Gaussian exponents for each gem_beta

 Geminal optimization for beta= 1.0000
 Weight function:   m=0, omega= 1.4646

 Augmented Hessian optimization of geminal fit. Trust ratio= 0.40000
 Convergence reached after   2 iterations. Final gradient= 8.24D-16, Step= 4.32D-06, Delta= 1.28D-09
 
 Alpha:                 0.19532     0.81920     2.85917     9.50073    35.69989   197.79328
 Coeff:                 0.27070     0.30552     0.18297     0.10986     0.06810     0.04224
 

 All pairs explicitly correlated. Number of r12-pairs:           78
 
 AO(A)-basis ORBITAL           loaded. Number of functions:     230
 RI(R)-basis CC-PVTZ/JKFIT     loaded. Number of functions:     376
 DF-basis CC-PVTZ/JKFIT        loaded. Number of functions:     376

 Screening thresholds:   THRAO=  1.00D-10  THRMO=  1.00D-09  THRPROD=  1.00D-09
                         THRSW=  1.00D-05  THROV=  1.00D-12  THRF12=   1.00D-08

 CPU time for Fock operators                      0.78 sec
 
 Construction of ABS:
 Smallest eigenvalue of S          2.58E-04  (threshold= 1.00E-08)
 Ratio eigmin/eigmax               1.84E-06  (threshold= 1.00E-09)
 Smallest eigenvalue of S kept     2.58E-04  (threshold= 2.58E-04, 0 functions deleted, 376 kept)
 
 Construction of CABS:
 Smallest eigenvalue of S          2.30E-08  (threshold= 1.00E-08)
 Ratio eigmin/eigmax               2.30E-08  (threshold= 1.00E-09)
 Smallest eigenvalue of S kept     2.30E-08  (threshold= 2.30E-08, 0 functions deleted, 376 kept)
 
 CPU time for CABS singles                        0.15 sec

 CABS-singles contribution of  -0.01593107 patched into reference energy.
 New reference energy        -263.78508399
 
 AO(A)-basis ORBITAL           loaded. Number of functions:     230
 RI(R)-basis CC-PVTZ/JKFIT     loaded. Number of functions:     376
 DF-basis AUG-CC-PVTZ/MP2FIT   loaded. Number of functions:     516

 Screening thresholds:   THRAO=  1.00D-10  THRMO=  1.00D-09  THRPROD=  1.00D-09
                         THRSW=  1.00D-05  THROV=  1.00D-12  THRF12=   1.00D-08

 CPU time for 3-index integral evaluation         1.27 sec
 CPU time for first  half transformation          0.20 sec ( 5461.2 MFLOP/sec)
 CPU time for second half transformation          0.01 sec ( 6524.1 MFLOP/sec)
 CPU time for sorting                             0.07 sec
 CPU time for fitting                             0.06 sec (23217.5 MFLOP/sec)
 CPU time for tilde quantities                    0.06 sec (30814.7 MFLOP/sec)
 CPU time for assembly                            0.75 sec (32933.5 MFLOP/sec)
 CPU time for tranop_f12                          0.84 sec (36153.1 MFLOP/sec)
 CPU time for f12 integrals (total)               5.27 sec
 F12-matrices built in  3 passes.
 F12-matrices built in  3 passes.
 F12-matrices built in  3 passes.
 F12-matrices built in  3 passes.
 FC-matrix built in  3 passes.
 CPU time for f12 matrices (total)                0.54 sec

 Diagonal F12 approximation with fixed coefficients:  TSING= 0.500,  TTRIP= 0.250 (scaled by -1/beta)

 DF-MP2-F12 energy corrections:
 ------------------------------
 Approx.                                    Singlet             Triplet             Total
 DF-MP2-F12/3*C(DX,FIX)                -0.097444520982     -0.016933760027     -0.114378281009
 DF-MP2-F12/3*C(FIX)                   -0.079853648676     -0.013394890044     -0.093248538721
 DF-MP2-F12/3C(FIX)                    -0.080215119708     -0.013418682287     -0.093633801995

 DF-MP2-F12 correlation energies:
 --------------------------------
 Approx.                                    Singlet             Triplet             Ecorr            Total Energy
 DF-MP2                                -0.537789943700     -0.343131746968     -0.880921690668   -264.666005675738
 DF-MP2-F12/3*C(DX,FIX)                -0.635234464682     -0.360065506995     -0.995299971677   -264.780383956747
 DF-MP2-F12/3*C(FIX)                   -0.617643592376     -0.356526637012     -0.974170229389   -264.759254214458
 DF-MP2-F12/3C(FIX)                    -0.618005063408     -0.356550429255     -0.974555492663   -264.759639477733

 SCS-DF-MP2 energies (F_SING= 1.20000  F_TRIP= 0.62222  F_PARALLEL= 0.33333):
 ----------------------------------------------------------------------------
 SCS-DF-MP2                            -0.858852130554   -264.643936115623
 SCS-DF-MP2-F12/3*C(DX,FIX)            -0.986322117527   -264.771406102597
 SCS-DF-MP2-F12/3*C(FIX)               -0.963011107215   -264.748095092285
 SCS-DF-MP2-F12/3C(FIX)                -0.963459676515   -264.748543661585
 Symmetry transformation completed.

 Number of N-1 electron functions:              12
 Number of N-2 electron functions:              78
 Number of singly external CSFs:              2568
 Number of doubly external CSFs:           3298596
 Total number of CSFs:                     3301165

 Pair and operator lists are different

 Length of J-op  integral file:             474.22 MB
 Length of K-op  integral file:             572.29 MB
 Length of 3-ext integral record:             0.00 MB

 For full I/O caching in triples, increase memory by 50.81 Mwords to 151.09 Mwords.

 Integral transformation finished. Total CPU:  11.97 sec, npass=  1  Memory used:  87.46 MW

 Reference energy:                   -263.78508399

 Adding F12 terms to K(Cij), methodcc=6,  factor=1.0

 ITER.      SQ.NORM     CORR.ENERGY   TOTAL ENERGY   ENERGY CHANGE        DEN1      VAR(S)    VAR(P)  DIIS     TIME
   1      1.20216781    -0.86285325  -264.64793723     0.01808481     0.04674850  0.72D-02  0.56D-02  1  1    25.75
   2      1.21649152    -0.85861425  -264.64369823     0.00423900    -0.02016981  0.86D-04  0.59D-03  2  2    32.61
   3      1.22185538    -0.85870955  -264.64379353    -0.00009530    -0.00236198  0.13D-03  0.32D-04  3  3    40.77
   4      1.22466192    -0.85858095  -264.64366494     0.00012860    -0.00141259  0.76D-05  0.41D-05  4  4    47.61
   5      1.22569515    -0.85854299  -264.64362698     0.00003796    -0.00036737  0.56D-06  0.29D-06  5  5    54.31
   6      1.22585783    -0.85851605  -264.64360004     0.00002694    -0.00000807  0.40D-07  0.24D-07  6  6    61.06
   7      1.22588732    -0.85851361  -264.64359760     0.00000244    -0.00000622  0.26D-08  0.40D-08  6  4    67.83
   8      1.22588767    -0.85851311  -264.64359710     0.00000050     0.00000193  0.40D-09  0.28D-09  6  1    74.55
   9      1.22588827    -0.85851318  -264.64359716    -0.00000007     0.00000058  0.27D-10  0.22D-10  6  2    81.26

 Norm of t1 vector:      0.10606614      S-energy:     0.00000018      T1 diagnostic:  0.01530933
                                                                       D1 diagnostic:  0.04500996

 Adding energy correction from Wij-K(Fij), methodcc=6  factor=1.0
 
  CCSD correlation energy              -0.858513179649
  MP2-F12 correction (uncoupled)       -0.092475249594
  C*T doubles correction               -0.001477520748
  f12b correction                       0.015405132504


 Total CPU time for triples:    196.99 sec


 RESULTS
 =======

  Reference energy                   -263.769152912722
  F12 singles correction               -0.015931072347

 F12 singles corrections added to reference energy

  New reference energy               -263.785083985070

  F12a singlet correction              -0.080415859044
  F12a triplet correction              -0.013536911298
  F12a total correction                -0.093952770343

 F12a corrections for ansatz F12/3C(FIX) added to CCSD energy
 
  CCSD-F12a singlet pair energy        -0.641929379617
  CCSD-F12a triplet pair energy        -0.310536751985
  CCSD-F12a correlation energy         -0.952465949992

  Triples (T) contribution             -0.037658055461
  Total correlation energy             -0.990124005452

  CCSD-F12a total energy             -264.737549935062
  CCSD[T]-F12a energy                -264.777756615867
  CCSD-T-F12a energy                 -264.774268822972
 !CCSD(T)-F12a total energy          -264.775207990522

 F12b corrections for ansatz F12/3C(FIX) added to CCSD(T)-F12a energy

  CCSD-F12b singlet pair energy        -0.627747371338
  CCSD-F12b triplet pair energy        -0.309313627760
  CCSD-F12b correlation energy         -0.937060817488

  Triples (T) contribution             -0.037658055461
  Total correlation energy             -0.974718872948

  CCSD-F12b total energy             -264.722144802557
  CCSD[T]-F12b energy                -264.762351483363
  CCSD-T-F12b energy                 -264.758863690468
 !CCSD(T)-F12b total energy          -264.759802858018

 Timing summary (sec):

 STEP                 CPU(USER)    SYS     CPU(TOT)    WALL
 Transformation         12.08      1.01     13.09     13.09
 CCSD iterations        61.98      2.65     64.63     65.19
 Triples               196.99      2.23    199.22    199.14
 MP2-F12                 7.23      1.02      8.25      8.25
 F12b energy             3.74      0.02      3.76      3.76

 Program statistics:

 Available memory in ccsd:                99998934
 Min. memory needed in ccsd:               8644845
 Max. memory used in ccsd:                11598633
 Max. memory used in cckext:               8768967 (10 integral passes)



 **********************************************************************************************************************************
 DATASETS  * FILE   NREC   LENGTH (MB)   RECORD NAMES
              1      20      527.84       500      610      700      900      950      970     1000      129      960     1100   
                                          VAR    BASINP    GEOM    SYMINP    ZMAT    AOBASIS   BASIS     P2S    ABASIS      S 
                                         1400     1410     1200     1210     1080     1600     1650     1700      960(1)  1380   
                                           T        V       H0       H01     AOSYM     SMH    MOLCAS    OPER    ABASIS    JKOP   

              2       5        2.50       700     1000     2100     7360     7350   
                                         GEOM     BASIS     RHF    F12ABS    EF12   

 PROGRAMS   *        TOTAL   CCSD(T)        HF       INT
 CPU TIMES  *       292.76    282.27      6.36      4.05
 REAL TIME  *       300.96 SEC
 DISK USED  *         2.01 GB      
 SF USED    *         1.91 GB      
 GA USED    *         2.40 MB       (max)       0.00 MB       (current)
 **********************************************************************************************************************************

     CCSD(T)-F12        HF-SCF  
   -264.75980286   -263.76915291
 **********************************************************************************************************************************
 Variable memory released
