
 Primary working directories    : /scratch/kee
 Secondary working directories  : /scratch/kee
 Wavefunction directory         : /home/kee/wfu/
 Main file repository           : /scratch/kee/

 ARCHNAME  : Linux/x86_64
 FC        : /opt/intel/composer_xe_2015.0.090/bin/intel64/ifort
 FCVERSION : 15.0.0
 BLASLIB   : -L/opt/intel/mkl/lib/intel64 -lmkl_intel_ilp64 -lmkl_sequential -lmkl_core
 id        : emory

 Nodes     nprocs
 node18       3
 Number of processes for MPI-2 version of Molpro:   nprocs(total)=    4   nprocs(compute)=    3   nprocs(helper)=    1
 ga_uses_ma=false, calling ma_init with nominal heap.
 GA-space will be limited to   8.0 MW (determined by -G option)

 Using customized tuning parameters: mindgm=7; mindgv=32; mindgc=1; mindgr=1; noblas=0; mincuda=1000; minvec=7
 default implementation of scratch files=sf  

 ***,co2h2o
 memory,100,m
 basis avtz
 geomtype = xyz
 geometry = {
 6
       0.00000000
 O     0.00351000    1.16210700    0.00000000
 O     0.00351000   -1.16210700    0.00000000
 O    10.21968000    0.00000000    0.00000000
 H    10.80589800    0.00000000    0.75853100
 H    10.80589800    0.00000000   -0.75853100
 C     0.01968000    0.00000000    0.00000000
 }
 hf
 ccsd(t)-f12
 ---

 Variables initialized (665), CPU time= 0.01 sec
 Commands  initialized (462), CPU time= 0.01 sec, 486 directives.
 Default parameters read. Elapsed time= 0.04 sec

 Checking input...
 Passed
1


                                         ***  PROGRAM SYSTEM MOLPRO  ***
                         Copyright, University College Cardiff Consultants Limited, 2008

                                    Version 2010.1 linked 9 Dec 2014 15:06:28 


 **********************************************************************************************************************************
 LABEL *   co2h2o                                                                        
 Linux-2.6.32-504.el6.x86_64/node18(x86_64) 64 bit mpp version                           DATE: 12-Dec-16          TIME: 14:35:44  
 **********************************************************************************************************************************

 Patch level:      19
 **********************************************************************************************************************************

 Variable memory set to  100000000 words,  buffer space   230000 words

 SETTING BASIS          =    AVTZ
 SETTING GEOMTYPE       =    XYZ

Geometry recognized as XYZ



 Recomputing integrals since basis changed


 Using spherical harmonics

 Library entry O      S aug-cc-pVTZ          selected for orbital group  1
 Library entry O      P aug-cc-pVTZ          selected for orbital group  1
 Library entry O      D aug-cc-pVTZ          selected for orbital group  1
 Library entry O      F aug-cc-pVTZ          selected for orbital group  1
 Library entry H      S aug-cc-pVTZ          selected for orbital group  2
 Library entry H      P aug-cc-pVTZ          selected for orbital group  2
 Library entry H      D aug-cc-pVTZ          selected for orbital group  2
 Library entry C      S aug-cc-pVTZ          selected for orbital group  3
 Library entry C      P aug-cc-pVTZ          selected for orbital group  3
 Library entry C      D aug-cc-pVTZ          selected for orbital group  3
 Library entry C      F aug-cc-pVTZ          selected for orbital group  3

1PROGRAM * SEWARD (Integral evaluation for generally contracted gaussian basis sets)     Author: Roland Lindh, 1990

 Geometry written to block  1 of record 700


 Point group  C2v 



 ATOMIC COORDINATES

 NR  ATOM    CHARGE       X              Y              Z

   1  O       8.00    0.006632939    2.196063965    0.000000000
   2  O       8.00    0.006632939   -2.196063965    0.000000000
   3  O       8.00   19.312396351    0.000000000    0.000000000
   4  H       1.00   20.420187824    0.000000000    1.433415852
   5  H       1.00   20.420187824    0.000000000   -1.433415852
   6  C       6.00    0.037189810    0.000000000    0.000000000

 Bond lengths in Bohr (Angstrom)

 1-6  2.196276545  2-6  2.196276545  3-4  1.811596797  3-5  1.811596797
     (1.162219492)     (1.162219492)     (0.958655737)     (0.958655737)

 Bond angles

  1-6-2  178.40563223   4-3-5  104.60391356

 NUCLEAR CHARGE:                   32
 NUMBER OF PRIMITIVE AOS:         322
 NUMBER OF SYMMETRY AOS:          282
 NUMBER OF CONTRACTIONS:          230   (  84A1  +  59B1  +  54B2  +  33A2  )
 NUMBER OF CORE ORBITALS:           4   (   3A1  +   1B1  +   0B2  +   0A2  )
 NUMBER OF VALENCE ORBITALS:       18   (   8A1  +   5B1  +   4B2  +   1A2  )


 NUCLEAR REPULSION ENERGY   78.68266204


 Eigenvalues of metric

         1 0.384E-03 0.420E-03 0.903E-03 0.186E-02 0.317E-02 0.321E-02 0.405E-02 0.540E-02
         2 0.349E-03 0.922E-03 0.175E-02 0.348E-02 0.596E-02 0.744E-02 0.205E-01 0.216E-01
         3 0.394E-03 0.167E-02 0.318E-02 0.509E-02 0.622E-02 0.100E-01 0.136E-01 0.156E-01
         4 0.348E-02 0.124E-01 0.296E-01 0.363E-01 0.561E-01 0.679E-01 0.110E+00 0.139E+00


 Contracted 2-electron integrals neglected if value below      1.0D-11
 AO integral compression algorithm  1   Integral accuracy      1.0D-11

     147.325 MB (compressed) written to integral file ( 26.8%)

     Node minimum: 45.875 MB, node maximum: 55.312 MB


 NUMBER OF SORTED TWO-ELECTRON INTEGRALS:   29979201.     BUFFER LENGTH:  32768
 NUMBER OF SEGMENTS:   2  SEGMENT LENGTH:   15996954      RECORD LENGTH: 524288

 Memory used in sort:      16.55 MW

 SORT1 READ    68393711. AND WROTE     8781242. INTEGRALS IN     26 RECORDS. CPU TIME:     1.18 SEC, REAL TIME:     1.30 SEC
 SORT2 READ    26233205. AND WROTE    89930217. INTEGRALS IN    528 RECORDS. CPU TIME:     0.35 SEC, REAL TIME:     0.46 SEC

 Node minimum:    29974277.  Node maximum:    29979201. integrals

 OPERATOR DM      FOR CENTER  0  COORDINATES:    0.000000    0.000000    0.000000


 **********************************************************************************************************************************
 DATASETS  * FILE   NREC   LENGTH (MB)   RECORD NAMES
              1      18        3.23       500      610      700      900      950      970     1000      129      960     1100   
                                          VAR    BASINP    GEOM    SYMINP    ZMAT    AOBASIS   BASIS     P2S    ABASIS      S 
                                         1400     1410     1200     1210     1080     1600     1650     1700   
                                           T        V       H0       H01     AOSYM     SMH    MOLCAS    OPER   

 PROGRAMS   *        TOTAL       INT
 CPU TIMES  *         2.87      2.79
 REAL TIME  *         3.23 SEC
 DISK USED  *       456.64 MB      
 GA USED    *         0.00 MB       (max)       0.00 MB       (current)
 **********************************************************************************************************************************

1PROGRAM * RHF-SCF (CLOSED SHELL)       Authors: W. Meyer, H.-J. Werner


 NUMBER OF ELECTRONS:      16+   16-
 CONVERGENCE THRESHOLDS:    1.00E-05 (Density)    1.00E-07 (Energy)
 MAX. NUMBER OF ITERATIONS:       60
 INTERPOLATION TYPE:            DIIS
 INTERPOLATION STEPS:              2 (START)      1 (STEP)
 LEVEL SHIFTS:                  0.00 (CLOSED)  0.00 (OPEN) 



 Orbital guess generated from atomic densities. Full valence occupancy:   11   6   4   1

 Molecular orbital dump at record        2100.2

 Initial alpha occupancy:   8   5   2   1
 Initial beta  occupancy:   8   5   2   1
 Wave function symmetry:    1

 ITERATION    DDIFF          GRAD             ENERGY        2-EL.EN.            DIPOLE MOMENTS         DIIS
    1      0.000D+00      0.000D+00      -263.66023500    352.894918    1.18059    0.00000    0.00000    0
    2      0.000D+00      0.889D-02      -263.72554423    348.327592    0.68290    0.00000    0.00000    1
    3      0.143D-01      0.604D-02      -263.76891785    350.888843    0.80653    0.00000    0.00000    2
    4      0.588D-02      0.568D-03      -263.76941306    350.675926    0.81014    0.00000    0.00000    3
    5      0.694D-03      0.165D-03      -263.76947110    350.678707    0.80465    0.00000    0.00000    4
    6      0.258D-03      0.666D-04      -263.76947827    350.693044    0.80536    0.00000    0.00000    5
    7      0.855D-04      0.163D-04      -263.76947900    350.684730    0.80490    0.00000    0.00000    6
    8      0.280D-04      0.359D-05      -263.76947904    350.686030    0.80492    0.00000    0.00000    7
    9      0.768D-05      0.121D-05      -263.76947905    350.685840    0.80488    0.00000    0.00000    0

 Final occupancy:   8   5   2   1

 !RHF STATE 1.1 Energy               -263.769479047396
 Nuclear energy                        78.68266204
 One-electron energy                 -517.79506093
 Two-electron energy                  175.34291984
 Virial quotient                       -1.00182672
 !RHF STATE 1.1 Dipole moment           0.80488443     0.00000000     0.00000000
 Dipole moment /Debye                   2.04567818     0.00000000     0.00000000

 Orbital energies:

         1.1          2.1          3.1          4.1          5.1          6.1          7.1          8.1          9.1         10.1
    -20.651410   -20.567717   -11.460232    -1.529068    -1.353119    -0.799323    -0.713122    -0.584829     0.029021     0.049406

         1.2          2.2          3.2          4.2          5.2          6.2          7.2
    -20.651455    -1.475986    -0.741562    -0.542764    -0.510533     0.080747     0.158241

         1.3          2.3          3.3          4.3
     -0.717558    -0.713144     0.047425     0.074789

         1.4          2.4          3.4
     -0.542789     0.165588     0.264969


 **********************************************************************************************************************************
 DATASETS  * FILE   NREC   LENGTH (MB)   RECORD NAMES
              1      18        3.25       500      610      700      900      950      970     1000      129      960     1100   
                                          VAR    BASINP    GEOM    SYMINP    ZMAT    AOBASIS   BASIS     P2S    ABASIS      S 
                                         1400     1410     1200     1210     1080     1600     1650     1700   
                                           T        V       H0       H01     AOSYM     SMH    MOLCAS    OPER   

              2       3        0.67       700     1000     2100   
                                         GEOM     BASIS     RHF  

 PROGRAMS   *        TOTAL        HF       INT
 CPU TIMES  *         3.83      0.96      2.79
 REAL TIME  *         4.25 SEC
 DISK USED  *       474.03 MB      
 SF USED    *         0.06 MB      
 GA USED    *         0.00 MB       (max)       0.00 MB       (current)
 **********************************************************************************************************************************


1PROGRAM * CCSD (Closed-shell coupled cluster)     Authors: C. Hampel, H.-J. Werner, 1991, M. Deegan, P.J. Knowles, 1992

                                  CCSD-F12 implementation by  H.-J. Werner, 2007

                   Density fitting integral evaluation by F.R. Manby, 2003,2007, G. Knizia, 2010

 Basis set CC-PVTZ/JKFIT generated.      Number of basis functions:   376 
 Basis set AUG-CC-PVTZ/MP2FIT generated. Number of basis functions:   516 

 Convergence thresholds:  THRVAR = 1.00D-08  THRDEN = 1.00D-06

 CCSD(T)     terms to be evaluated (factor= 1.000)


 Number of core orbitals:           4 (   3   1   0   0 )
 Number of closed-shell orbitals:  12 (   5   4   2   1 )
 Number of external orbitals:     214 (  76  54  52  32 )

 Molecular orbitals read from record     2100.2  Type=RHF/CANONICAL (state 1.1)

 MP2-F12 correlation treatment (H.-J. Werner, 2006)
 --------------------------------------------------

 Using MP2-F12 with ansatz 3C(FIX)

 Using projected zeroth-order Hamiltonian (+Z)

 FOCKRIB=T FOCKRIC=T FOCKRIP=T CABSP=T CABSA=T CABSK=T CABSF=T GBC=F EBC=F DMAT=T NOFIK=T NOPAO=1 SOLVE=-1  USEPAO=0
 EXCH_A= T EXCH_B= F EXCH_C= F EXCH_P= F
 
 Geminal basis:    OPTFULL  GEM_TYPE=SLATER  BETA=1.0  NGEM=6

 Optimizing Gaussian exponents for each gem_beta

 Geminal optimization for beta= 1.0000
 Weight function:   m=0, omega= 1.4646

 Augmented Hessian optimization of geminal fit. Trust ratio= 0.40000
 Convergence reached after   2 iterations. Final gradient= 8.24D-16, Step= 4.32D-06, Delta= 1.28D-09
 
 Alpha:                 0.19532     0.81920     2.85917     9.50073    35.69989   197.79328
 Coeff:                 0.27070     0.30552     0.18297     0.10986     0.06810     0.04224
 

 Symmetry turned off. Reference energy:       -263.769479047396

 All pairs explicitly correlated. Number of r12-pairs:           78
 
 AO(A)-basis ORBITAL           loaded. Number of functions:     230
 RI(R)-basis CC-PVTZ/JKFIT     loaded. Number of functions:     376
 DF-basis CC-PVTZ/JKFIT        loaded. Number of functions:     376

 Screening thresholds:   THRAO=  1.00D-10  THRMO=  1.00D-09  THRPROD=  1.00D-09
                         THRSW=  1.00D-05  THROV=  1.00D-12  THRF12=   1.00D-08

 CPU time for Fock operators                      0.92 sec
 
 Construction of ABS:
 Smallest eigenvalue of S          2.57E-04  (threshold= 1.00E-08)
 Ratio eigmin/eigmax               1.83E-06  (threshold= 1.00E-09)
 Smallest eigenvalue of S kept     2.57E-04  (threshold= 2.57E-04, 0 functions deleted, 376 kept)
 
 Construction of CABS:
 Smallest eigenvalue of S          2.30E-08  (threshold= 1.00E-08)
 Ratio eigmin/eigmax               2.30E-08  (threshold= 1.00E-09)
 Smallest eigenvalue of S kept     2.30E-08  (threshold= 2.30E-08, 0 functions deleted, 376 kept)
 
 CPU time for CABS singles                        0.17 sec

 CABS-singles contribution of  -0.01592447 patched into reference energy.
 New reference energy        -263.78540352
 
 AO(A)-basis ORBITAL           loaded. Number of functions:     230
 RI(R)-basis CC-PVTZ/JKFIT     loaded. Number of functions:     376
 DF-basis AUG-CC-PVTZ/MP2FIT   loaded. Number of functions:     516

 Screening thresholds:   THRAO=  1.00D-10  THRMO=  1.00D-09  THRPROD=  1.00D-09
                         THRSW=  1.00D-05  THROV=  1.00D-12  THRF12=   1.00D-08

 CPU time for 3-index integral evaluation         1.65 sec
 CPU time for first  half transformation          0.16 sec (11462.4 MFLOP/sec)
 CPU time for second half transformation          0.02 sec ( 4728.6 MFLOP/sec)
 CPU time for sorting                             0.13 sec
 CPU time for fitting                             0.04 sec (34613.3 MFLOP/sec)
 CPU time for tilde quantities                    0.06 sec (30814.7 MFLOP/sec)
 CPU time for assembly                            0.85 sec (27241.5 MFLOP/sec)
 CPU time for tranop_f12                          0.92 sec (31785.7 MFLOP/sec)
 CPU time for f12 integrals (total)               6.03 sec
 F12-matrices built in  3 passes.
 F12-matrices built in  3 passes.
 F12-matrices built in  3 passes.
 F12-matrices built in  3 passes.
 FC-matrix built in  3 passes.
 CPU time for f12 matrices (total)                0.53 sec

 Diagonal F12 approximation with fixed coefficients:  TSING= 0.500,  TTRIP= 0.250 (scaled by -1/beta)

 DF-MP2-F12 energy corrections:
 ------------------------------
 Approx.                                    Singlet             Triplet             Total
 DF-MP2-F12/3*C(DX,FIX)                -0.097450992864     -0.016933915495     -0.114384908359
 DF-MP2-F12/3*C(FIX)                   -0.079865785560     -0.013395968874     -0.093261754434
 DF-MP2-F12/3C(FIX)                    -0.080226883502     -0.013419277393     -0.093646160895

 DF-MP2-F12 correlation energies:
 --------------------------------
 Approx.                                    Singlet             Triplet             Ecorr            Total Energy
 DF-MP2                                -0.537745356136     -0.343083871966     -0.880829228101   -264.666232747509
 DF-MP2-F12/3*C(DX,FIX)                -0.635196348999     -0.360017787461     -0.995214136460   -264.780617655868
 DF-MP2-F12/3*C(FIX)                   -0.617611141696     -0.356479840840     -0.974090982535   -264.759494501944
 DF-MP2-F12/3C(FIX)                    -0.617972239638     -0.356503149358     -0.974475388996   -264.759878908404

 SCS-DF-MP2 energies (F_SING= 1.20000  F_TRIP= 0.62222  F_PARALLEL= 0.33333):
 ----------------------------------------------------------------------------
 SCS-DF-MP2                            -0.858768836586   -264.644172355994
 SCS-DF-MP2-F12/3*C(DX,FIX)            -0.986246686552   -264.771650205960
 SCS-DF-MP2-F12/3*C(FIX)               -0.962943048779   -264.748346568188
 SCS-DF-MP2-F12/3C(FIX)                -0.963390869388   -264.748794388796

 Symmetry restored.
 Symmetry transformation completed.

 Number of N-1 electron functions:              12
 Number of N-2 electron functions:              78
 Number of singly external CSFs:               732
 Number of doubly external CSFs:            836016
 Total number of CSFs:                      836749

 Pair and operator lists are different

 Length of J-op  integral file:             462.26 MB
 Length of K-op  integral file:             502.03 MB
 Length of 3-ext integral record:             0.00 MB

 Memory could be reduced to 38.69 Mwords without degradation in triples

 Integral transformation finished. Total CPU:   1.47 sec, npass=  1  Memory used:   6.07 MW

 Reference energy:                   -263.78540352

 Adding F12 terms to K(Cij), methodcc=6,  factor=1.0

 ITER.      SQ.NORM     CORR.ENERGY   TOTAL ENERGY   ENERGY CHANGE        DEN1      VAR(S)    VAR(P)  DIIS     TIME
   1      1.20216166    -0.86277683  -264.64818035     0.01806884     0.04670691  0.72D-02  0.56D-02  1  1    10.45
   2      1.21647672    -0.85854843  -264.64395195     0.00422840    -0.02015605  0.86D-04  0.59D-03  2  2    11.38
   3      1.22183840    -0.85864451  -264.64404803    -0.00009607    -0.00236443  0.13D-03  0.32D-04  3  3    12.31
   4      1.22464086    -0.85851657  -264.64392009     0.00012793    -0.00141158  0.76D-05  0.41D-05  4  4    13.25
   5      1.22567108    -0.85847886  -264.64388238     0.00003771    -0.00036648  0.55D-06  0.29D-06  5  5    14.19
   6      1.22583326    -0.85845200  -264.64385552     0.00002686    -0.00000805  0.40D-07  0.24D-07  6  6    15.14
   7      1.22586261    -0.85844958  -264.64385310     0.00000242    -0.00000622  0.25D-08  0.40D-08  6  4    16.09
   8      1.22586291    -0.85844909  -264.64385261     0.00000049     0.00000195  0.39D-09  0.27D-09  6  1    17.03
   9      1.22586352    -0.85844915  -264.64385267    -0.00000007     0.00000056  0.25D-10  0.21D-10  6  2    17.97

 Norm of t1 vector:      0.10597353      S-energy:    -0.00000003      T1 diagnostic:  0.01529596
                                                                       D1 diagnostic:  0.04494781

 Adding energy correction from Wij-K(Fij), methodcc=6  factor=1.0
 
  CCSD correlation energy              -0.858449152910
  MP2-F12 correction (uncoupled)       -0.092488746082
  C*T doubles correction               -0.001476000011
  f12b correction                       0.015406926873


 Total CPU time for triples:     27.47 sec


 RESULTS
 =======

  Reference energy                   -263.769479047396
  F12 singles correction               -0.015924472012

 F12 singles corrections added to reference energy

  New reference energy               -263.785403519408

  F12a singlet correction              -0.080426873905
  F12a triplet correction              -0.013537872187
  F12a total correction                -0.093964746093

 F12a corrections for ansatz F12/3C(FIX) added to CCSD energy
 
  CCSD-F12a singlet pair energy        -0.641909639092
  CCSD-F12a triplet pair energy        -0.310504233023
  CCSD-F12a correlation energy         -0.952413899002

  Triples (T) contribution             -0.037642389286
  Total correlation energy             -0.990056288288

  CCSD-F12a total energy             -264.737817418410
  CCSD[T]-F12a energy                -264.778004110750
  CCSD-T-F12a energy                 -264.774521945890
 !CCSD(T)-F12a total energy          -264.775459807696

 F12b corrections for ansatz F12/3C(FIX) added to CCSD(T)-F12a energy

  CCSD-F12b singlet pair energy        -0.627725999035
  CCSD-F12b triplet pair energy        -0.309280946207
  CCSD-F12b correlation energy         -0.937006972130

  Triples (T) contribution             -0.037642389286
  Total correlation energy             -0.974649361416

  CCSD-F12b total energy             -264.722410491538
  CCSD[T]-F12b energy                -264.762597183878
  CCSD-T-F12b energy                 -264.759115019017
 !CCSD(T)-F12b total energy          -264.760052880824

 Timing summary (sec):

 STEP                 CPU(USER)    SYS     CPU(TOT)    WALL
 Transformation          1.48      0.24      1.72      1.72
 CCSD iterations         8.40      0.66      9.06      9.05
 Triples                27.47      0.80     28.27     28.30
 MP2-F12                 8.11      1.14      9.25      9.25
 F12b energy             0.54      0.02      0.56      0.56

 Program statistics:

 Available memory in ccsd:                99998934
 Min. memory needed in ccsd:               2244783
 Max. memory used in ccsd:                 3005571
 Max. memory used in cckext:               2769663 (10 integral passes)



 **********************************************************************************************************************************
 DATASETS  * FILE   NREC   LENGTH (MB)   RECORD NAMES
              1      20      137.19       500      610      700      900      950      970     1000      129      960     1100   
                                          VAR    BASINP    GEOM    SYMINP    ZMAT    AOBASIS   BASIS     P2S    ABASIS      S 
                                         1400     1410     1200     1210     1080     1600     1650     1700      960(1)  1380   
                                           T        V       H0       H01     AOSYM     SMH    MOLCAS    OPER    ABASIS    JKOP   

              2       5        0.97       700     1000     2100     7360     7350   
                                         GEOM     BASIS     RHF    F12ABS    EF12   

 PROGRAMS   *        TOTAL   CCSD(T)        HF       INT
 CPU TIMES  *        49.87     46.03      0.96      2.79
 REAL TIME  *        53.47 SEC
 DISK USED  *       695.70 MB      
 SF USED    *         1.33 GB      
 GA USED    *         2.40 MB       (max)       0.00 MB       (current)
 **********************************************************************************************************************************

     CCSD(T)-F12        HF-SCF  
   -264.76005288   -263.76947905
 **********************************************************************************************************************************
 Variable memory released
