
 Primary working directories    : /scratch/kee
 Secondary working directories  : /scratch/kee
 Wavefunction directory         : /home/kee/wfu/
 Main file repository           : /scratch/kee/

 ARCHNAME  : Linux/x86_64
 FC        : /opt/intel/composer_xe_2015.0.090/bin/intel64/ifort
 FCVERSION : 15.0.0
 BLASLIB   : -L/opt/intel/mkl/lib/intel64 -lmkl_intel_ilp64 -lmkl_sequential -lmkl_core
 id        : emory

 Nodes     nprocs
 node25       3
 Number of processes for MPI-2 version of Molpro:   nprocs(total)=    4   nprocs(compute)=    3   nprocs(helper)=    1
 ga_uses_ma=false, calling ma_init with nominal heap.
 GA-space will be limited to   8.0 MW (determined by -G option)

 Using customized tuning parameters: mindgm=7; mindgv=32; mindgc=1; mindgr=1; noblas=0; mincuda=1000; minvec=7
 default implementation of scratch files=sf  

 ***,co2h2o
 memory,100,m
 basis avtz
 geomtype = xyz
 geometry = {
 6
       0.00000000
 O     0.00032100    1.15989800    0.00000000
 O     0.00041400   -1.15989400    0.00000000
 O    14.12918510   10.36806612    3.71902218
 H    14.92073961   10.67702176    3.27667354
 H    14.44317091    9.88943837    4.48714441
 C     0.01953800    0.00000300    0.00000000
 }
 hf
 ccsd(t)-f12
 ---

 Variables initialized (665), CPU time= 0.01 sec
 Commands  initialized (462), CPU time= 0.00 sec, 486 directives.
 Default parameters read. Elapsed time= 0.04 sec

 Checking input...
 Passed
1


                                         ***  PROGRAM SYSTEM MOLPRO  ***
                         Copyright, University College Cardiff Consultants Limited, 2008

                                    Version 2010.1 linked 9 Dec 2014 15:06:28 


 **********************************************************************************************************************************
 LABEL *   co2h2o                                                                        
 Linux-2.6.32-504.el6.x86_64/node25(x86_64) 64 bit mpp version                           DATE: 15-Dec-16          TIME: 00:53:04  
 **********************************************************************************************************************************

 Patch level:      19
 **********************************************************************************************************************************

 Variable memory set to  100000000 words,  buffer space   230000 words

 SETTING BASIS          =    AVTZ
 SETTING GEOMTYPE       =    XYZ

Geometry recognized as XYZ



 Recomputing integrals since basis changed


 Using spherical harmonics

 Library entry O      S aug-cc-pVTZ          selected for orbital group  1
 Library entry O      P aug-cc-pVTZ          selected for orbital group  1
 Library entry O      D aug-cc-pVTZ          selected for orbital group  1
 Library entry O      F aug-cc-pVTZ          selected for orbital group  1
 Library entry H      S aug-cc-pVTZ          selected for orbital group  2
 Library entry H      P aug-cc-pVTZ          selected for orbital group  2
 Library entry H      D aug-cc-pVTZ          selected for orbital group  2
 Library entry C      S aug-cc-pVTZ          selected for orbital group  3
 Library entry C      P aug-cc-pVTZ          selected for orbital group  3
 Library entry C      D aug-cc-pVTZ          selected for orbital group  3
 Library entry C      F aug-cc-pVTZ          selected for orbital group  3

1PROGRAM * SEWARD (Integral evaluation for generally contracted gaussian basis sets)     Author: Roland Lindh, 1990

 Geometry written to block  1 of record 700


 Point group  C1  



 ATOMIC COORDINATES

 NR  ATOM    CHARGE       X              Y              Z

   1  O       8.00    0.000606602    2.191889560    0.000000000
   2  O       8.00    0.000782347   -2.191882001    0.000000000
   3  O       8.00   26.700290299   19.592805479    7.027933397
   4  H       1.00   28.196111541   20.176647026    6.192015613
   5  H       1.00   27.293637489   18.688330113    8.479474047
   6  C       6.00    0.036921469    0.000005669    0.000000000

 Bond lengths in Bohr (Angstrom)

 1-6  2.192184701  2-6  2.192185575  3-4  1.810279172  3-5  1.810278110
     (1.160054182)     (1.160054644)     (0.957958480)     (0.957957918)

 Bond angles

  1-6-2  178.10622893   4-3-5  105.10354942

 NUCLEAR CHARGE:                   32
 NUMBER OF PRIMITIVE AOS:         322
 NUMBER OF SYMMETRY AOS:          282
 NUMBER OF CONTRACTIONS:          230   ( 230A   )
 NUMBER OF CORE ORBITALS:           4   (   4A   )
 NUMBER OF VALENCE ORBITALS:       18   (  18A   )


 NUCLEAR REPULSION ENERGY   74.04653112


 Eigenvalues of metric

         1 0.348E-03 0.384E-03 0.392E-03 0.419E-03 0.896E-03 0.914E-03 0.167E-02 0.174E-02


 Contracted 2-electron integrals neglected if value below      1.0D-11
 AO integral compression algorithm  1   Integral accuracy      1.0D-11

     331.088 MB (compressed) written to integral file ( 32.8%)

     Node minimum: 81.002 MB, node maximum: 145.228 MB


 NUMBER OF SORTED TWO-ELECTRON INTEGRALS:  117629820.     BUFFER LENGTH:  32768
 NUMBER OF SEGMENTS:   8  SEGMENT LENGTH:   15997437      RECORD LENGTH: 524288

 Memory used in sort:      16.55 MW

 SORT1 READ   125862565. AND WROTE    23662396. INTEGRALS IN     73 RECORDS. CPU TIME:     1.55 SEC, REAL TIME:     1.82 SEC
 SORT2 READ    70494176. AND WROTE   352862895. INTEGRALS IN   1662 RECORDS. CPU TIME:     0.84 SEC, REAL TIME:     1.08 SEC

 Node minimum:   117612110.  Node maximum:   117629820. integrals

 OPERATOR DM      FOR CENTER  0  COORDINATES:    0.000000    0.000000    0.000000


 **********************************************************************************************************************************
 DATASETS  * FILE   NREC   LENGTH (MB)   RECORD NAMES
              1      18        4.62       500      610      700      900      950      970     1000      129      960     1100   
                                          VAR    BASINP    GEOM    SYMINP    ZMAT    AOBASIS   BASIS     P2S    ABASIS      S 
                                         1400     1410     1200     1210     1080     1600     1650     1700   
                                           T        V       H0       H01     AOSYM     SMH    MOLCAS    OPER   

 PROGRAMS   *        TOTAL       INT
 CPU TIMES  *         4.42      4.35
 REAL TIME  *         5.05 SEC
 DISK USED  *         1.22 GB      
 GA USED    *         0.00 MB       (max)       0.00 MB       (current)
 **********************************************************************************************************************************

1PROGRAM * RHF-SCF (CLOSED SHELL)       Authors: W. Meyer, H.-J. Werner


 NUMBER OF ELECTRONS:      16+   16-    SPACE SYMMETRY=1    SPIN SYMMETRY=Singlet 
 CONVERGENCE THRESHOLDS:    1.00E-05 (Density)    1.00E-07 (Energy)
 MAX. NUMBER OF ITERATIONS:       60
 INTERPOLATION TYPE:            DIIS
 INTERPOLATION STEPS:              2 (START)      1 (STEP)
 LEVEL SHIFTS:                  0.00 (CLOSED)  0.00 (OPEN) 



 Orbital guess generated from atomic densities. Full valence occupancy:   22

 Molecular orbital dump at record        2100.2

 ITERATION    DDIFF          GRAD             ENERGY        2-EL.EN.            DIPOLE MOMENTS         DIIS
    1      0.000D+00      0.000D+00      -263.66136623    343.537423    1.12568   -0.16409    0.31507    0
    2      0.000D+00      0.468D-02      -263.72655943    338.998771    0.64421   -0.09613    0.18685    1
    3      0.749D-02      0.317D-02      -263.76941442    341.546369    0.76513   -0.11257    0.21730    2
    4      0.307D-02      0.296D-03      -263.76990271    341.332680    0.76824   -0.11307    0.21857    3
    5      0.356D-03      0.858D-04      -263.76995911    341.337076    0.76312   -0.11239    0.21705    4
    6      0.132D-03      0.344D-04      -263.76996598    341.350775    0.76374   -0.11244    0.21727    5
    7      0.433D-04      0.849D-05      -263.76996668    341.342598    0.76331   -0.11240    0.21714    6
    8      0.141D-04      0.187D-05      -263.76996673    341.343879    0.76332   -0.11238    0.21715    7
    9      0.381D-05      0.655D-06      -263.76996673    341.343696    0.76329   -0.11240    0.21714    0

 Final occupancy:  16

 !RHF STATE 1.1 Energy               -263.769966730646
 Nuclear energy                        74.04653112
 One-electron energy                 -508.48834583
 Two-electron energy                  170.67184798
 Virial quotient                       -1.00173775
 !RHF STATE 1.1 Dipole moment           0.76329400    -0.11239875     0.21713749
 Dipole moment /Debye                   1.93997277    -0.28567040     0.55187230

 Orbital energies:

         1.1          2.1          3.1          4.1          5.1          6.1          7.1          8.1          9.1         10.1
    -20.652436   -20.652381   -20.567084   -11.460533    -1.531814    -1.478692    -1.352829    -0.800596    -0.743466    -0.718615

        11.1         12.1         13.1         14.1         15.1         16.1         17.1         18.1
     -0.715608    -0.715600    -0.583676    -0.544435    -0.544410    -0.510148     0.029451     0.047621


 **********************************************************************************************************************************
 DATASETS  * FILE   NREC   LENGTH (MB)   RECORD NAMES
              1      18        4.62       500      610      700      900      950      970     1000      129      960     1100   
                                          VAR    BASINP    GEOM    SYMINP    ZMAT    AOBASIS   BASIS     P2S    ABASIS      S 
                                         1400     1410     1200     1210     1080     1600     1650     1700   
                                           T        V       H0       H01     AOSYM     SMH    MOLCAS    OPER   

              2       3        1.44       700     1000     2100   
                                         GEOM     BASIS     RHF  

 PROGRAMS   *        TOTAL        HF       INT
 CPU TIMES  *        11.23      6.80      4.35
 REAL TIME  *        12.11 SEC
 DISK USED  *         1.25 GB      
 SF USED    *         0.21 MB      
 GA USED    *         0.00 MB       (max)       0.00 MB       (current)
 **********************************************************************************************************************************


1PROGRAM * CCSD (Closed-shell coupled cluster)     Authors: C. Hampel, H.-J. Werner, 1991, M. Deegan, P.J. Knowles, 1992

                                  CCSD-F12 implementation by  H.-J. Werner, 2007

                   Density fitting integral evaluation by F.R. Manby, 2003,2007, G. Knizia, 2010

 Basis set CC-PVTZ/JKFIT generated.      Number of basis functions:   376 
 Basis set AUG-CC-PVTZ/MP2FIT generated. Number of basis functions:   516 

 Convergence thresholds:  THRVAR = 1.00D-08  THRDEN = 1.00D-06

 CCSD(T)     terms to be evaluated (factor= 1.000)


 Number of core orbitals:           4 (   4 )
 Number of closed-shell orbitals:  12 (  12 )
 Number of external orbitals:     214 ( 214 )

 Molecular orbitals read from record     2100.2  Type=RHF/CANONICAL (state 1.1)

 MP2-F12 correlation treatment (H.-J. Werner, 2006)
 --------------------------------------------------

 Using MP2-F12 with ansatz 3C(FIX)

 Using projected zeroth-order Hamiltonian (+Z)

 FOCKRIB=T FOCKRIC=T FOCKRIP=T CABSP=T CABSA=T CABSK=T CABSF=T GBC=F EBC=F DMAT=T NOFIK=T NOPAO=1 SOLVE=-1  USEPAO=0
 EXCH_A= T EXCH_B= F EXCH_C= F EXCH_P= F
 
 Geminal basis:    OPTFULL  GEM_TYPE=SLATER  BETA=1.0  NGEM=6

 Optimizing Gaussian exponents for each gem_beta

 Geminal optimization for beta= 1.0000
 Weight function:   m=0, omega= 1.4646

 Augmented Hessian optimization of geminal fit. Trust ratio= 0.40000
 Convergence reached after   2 iterations. Final gradient= 8.24D-16, Step= 4.32D-06, Delta= 1.28D-09
 
 Alpha:                 0.19532     0.81920     2.85917     9.50073    35.69989   197.79328
 Coeff:                 0.27070     0.30552     0.18297     0.10986     0.06810     0.04224
 

 All pairs explicitly correlated. Number of r12-pairs:           78
 
 AO(A)-basis ORBITAL           loaded. Number of functions:     230
 RI(R)-basis CC-PVTZ/JKFIT     loaded. Number of functions:     376
 DF-basis CC-PVTZ/JKFIT        loaded. Number of functions:     376

 Screening thresholds:   THRAO=  1.00D-10  THRMO=  1.00D-09  THRPROD=  1.00D-09
                         THRSW=  1.00D-05  THROV=  1.00D-12  THRF12=   1.00D-08

 CPU time for Fock operators                      0.91 sec
 
 Construction of ABS:
 Smallest eigenvalue of S          2.57E-04  (threshold= 1.00E-08)
 Ratio eigmin/eigmax               1.83E-06  (threshold= 1.00E-09)
 Smallest eigenvalue of S kept     2.57E-04  (threshold= 2.57E-04, 0 functions deleted, 376 kept)
 
 Construction of CABS:
 Smallest eigenvalue of S          2.29E-08  (threshold= 1.00E-08)
 Ratio eigmin/eigmax               2.29E-08  (threshold= 1.00E-09)
 Smallest eigenvalue of S kept     2.29E-08  (threshold= 2.29E-08, 0 functions deleted, 376 kept)
 
 CPU time for CABS singles                        0.17 sec

 CABS-singles contribution of  -0.01596093 patched into reference energy.
 New reference energy        -263.78592766
 
 AO(A)-basis ORBITAL           loaded. Number of functions:     230
 RI(R)-basis CC-PVTZ/JKFIT     loaded. Number of functions:     376
 DF-basis AUG-CC-PVTZ/MP2FIT   loaded. Number of functions:     516

 Screening thresholds:   THRAO=  1.00D-10  THRMO=  1.00D-09  THRPROD=  1.00D-09
                         THRSW=  1.00D-05  THROV=  1.00D-12  THRF12=   1.00D-08

 CPU time for 3-index integral evaluation         1.55 sec
 CPU time for first  half transformation          0.11 sec ( 8342.6 MFLOP/sec)
 CPU time for second half transformation          0.03 sec ( 1814.9 MFLOP/sec)
 CPU time for sorting                             0.08 sec
 CPU time for fitting                             0.07 sec (19900.7 MFLOP/sec)
 CPU time for tilde quantities                    0.07 sec (26412.6 MFLOP/sec)
 CPU time for assembly                            0.84 sec (27439.8 MFLOP/sec)
 CPU time for tranop_f12                          0.94 sec (31710.2 MFLOP/sec)
 CPU time for f12 integrals (total)               5.88 sec
 F12-matrices built in  3 passes.
 F12-matrices built in  3 passes.
 F12-matrices built in  3 passes.
 F12-matrices built in  3 passes.
 FC-matrix built in  3 passes.
 CPU time for f12 matrices (total)                0.51 sec

 Diagonal F12 approximation with fixed coefficients:  TSING= 0.500,  TTRIP= 0.250 (scaled by -1/beta)

 DF-MP2-F12 energy corrections:
 ------------------------------
 Approx.                                    Singlet             Triplet             Total
 DF-MP2-F12/3*C(DX,FIX)                -0.097505200122     -0.016950858926     -0.114456059047
 DF-MP2-F12/3*C(FIX)                   -0.079905323112     -0.013407894308     -0.093313217420
 DF-MP2-F12/3C(FIX)                    -0.080263701976     -0.013430837374     -0.093694539350

 DF-MP2-F12 correlation energies:
 --------------------------------
 Approx.                                    Singlet             Triplet             Ecorr            Total Energy
 DF-MP2                                -0.537336802607     -0.342772416368     -0.880109218975   -264.666036879658
 DF-MP2-F12/3*C(DX,FIX)                -0.634842002729     -0.359723275294     -0.994565278023   -264.780492938706
 DF-MP2-F12/3*C(FIX)                   -0.617242125719     -0.356180310676     -0.973422436395   -264.759350097078
 DF-MP2-F12/3C(FIX)                    -0.617600504583     -0.356203253742     -0.973803758325   -264.759731419008

 SCS-DF-MP2 energies (F_SING= 1.20000  F_TRIP= 0.62222  F_PARALLEL= 0.33333):
 ----------------------------------------------------------------------------
 SCS-DF-MP2                            -0.858084777757   -264.644012438440
 SCS-DF-MP2-F12/3*C(DX,FIX)            -0.985638219013   -264.771565879696
 SCS-DF-MP2-F12/3*C(FIX)               -0.962313855283   -264.748241515966
 SCS-DF-MP2-F12/3C(FIX)                -0.962758185605   -264.748685846288
 Symmetry transformation completed.

 Number of N-1 electron functions:              12
 Number of N-2 electron functions:              78
 Number of singly external CSFs:              2568
 Number of doubly external CSFs:           3298596
 Total number of CSFs:                     3301165

 Pair and operator lists are different

 Length of J-op  integral file:             474.22 MB
 Length of K-op  integral file:             572.29 MB
 Length of 3-ext integral record:             0.00 MB

 For full I/O caching in triples, increase memory by 50.81 Mwords to 151.09 Mwords.

 Integral transformation finished. Total CPU:  12.33 sec, npass=  1  Memory used:  87.46 MW

 Reference energy:                   -263.78592766

 Adding F12 terms to K(Cij), methodcc=6,  factor=1.0

 ITER.      SQ.NORM     CORR.ENERGY   TOTAL ENERGY   ENERGY CHANGE        DEN1      VAR(S)    VAR(P)  DIIS     TIME
   1      1.20175986    -0.86219703  -264.64812469     0.01792860     0.04638062  0.71D-02  0.55D-02  1  1    26.93
   2      1.21598447    -0.85801308  -264.64394074     0.00418395    -0.02004538  0.85D-04  0.58D-03  2  2    33.62
   3      1.22129512    -0.85810721  -264.64403487    -0.00009413    -0.00235186  0.13D-03  0.32D-04  3  3    40.28
   4      1.22406538    -0.85798214  -264.64390980     0.00012507    -0.00140053  0.74D-05  0.40D-05  4  4    46.99
   5      1.22507887    -0.85794515  -264.64387281     0.00003699    -0.00036149  0.54D-06  0.28D-06  5  5    53.69
   6      1.22523836    -0.85791870  -264.64384636     0.00002645    -0.00000787  0.39D-07  0.23D-07  6  6    60.42
   7      1.22526717    -0.85791632  -264.64384398     0.00000238    -0.00000613  0.25D-08  0.39D-08  6  4    67.15
   8      1.22526746    -0.85791584  -264.64384350     0.00000048     0.00000192  0.38D-09  0.26D-09  6  1    73.91
   9      1.22526807    -0.85791591  -264.64384357    -0.00000007     0.00000055  0.25D-10  0.21D-10  6  2    80.66

 Norm of t1 vector:      0.10538112      S-energy:    -0.00000002      T1 diagnostic:  0.01521046
                                                                       D1 diagnostic:  0.04464238

 Adding energy correction from Wij-K(Fij), methodcc=6  factor=1.0
 
  CCSD correlation energy              -0.857915905192
  MP2-F12 correction (uncoupled)       -0.092542880088
  C*T doubles correction               -0.001473678472
  f12b correction                       0.015403110205


 Total CPU time for triples:    222.79 sec


 RESULTS
 =======

  Reference energy                   -263.769966730646
  F12 singles correction               -0.015960930037

 F12 singles corrections added to reference energy

  New reference energy               -263.785927660683

  F12a singlet correction              -0.080466404891
  F12a triplet correction              -0.013550153670
  F12a total correction                -0.094016558560

 F12a corrections for ansatz F12/3C(FIX) added to CCSD energy
 
  CCSD-F12a singlet pair energy        -0.641547425876
  CCSD-F12a triplet pair energy        -0.310385017599
  CCSD-F12a correlation energy         -0.951932463752

  Triples (T) contribution             -0.037509315575
  Total correlation energy             -0.989441779327

  CCSD-F12a total energy             -264.737860124435
  CCSD[T]-F12a energy                -264.777886232505
  CCSD-T-F12a energy                 -264.774439719244
 !CCSD(T)-F12a total energy          -264.775369440010

 F12b corrections for ansatz F12/3C(FIX) added to CCSD(T)-F12a energy

  CCSD-F12b singlet pair energy        -0.627368208926
  CCSD-F12b triplet pair energy        -0.309161124343
  CCSD-F12b correlation energy         -0.936529353547

  Triples (T) contribution             -0.037509315575
  Total correlation energy             -0.974038669122

  CCSD-F12b total energy             -264.722457014230
  CCSD[T]-F12b energy                -264.762483122300
  CCSD-T-F12b energy                 -264.759036609039
 !CCSD(T)-F12b total energy          -264.759966329805

 Timing summary (sec):

 STEP                 CPU(USER)    SYS     CPU(TOT)    WALL
 Transformation         12.45      1.11     13.56     13.56
 CCSD iterations        60.13      2.86     62.99     62.97
 Triples               222.79      3.17    225.96    225.93
 MP2-F12                 8.10      1.27      9.37      9.37
 F12b energy             3.87      0.04      3.91      3.91

 Program statistics:

 Available memory in ccsd:                99998934
 Min. memory needed in ccsd:               8644845
 Max. memory used in ccsd:                11598633
 Max. memory used in cckext:               8768967 (10 integral passes)



 **********************************************************************************************************************************
 DATASETS  * FILE   NREC   LENGTH (MB)   RECORD NAMES
              1      20      527.84       500      610      700      900      950      970     1000      129      960     1100   
                                          VAR    BASINP    GEOM    SYMINP    ZMAT    AOBASIS   BASIS     P2S    ABASIS      S 
                                         1400     1410     1200     1210     1080     1600     1650     1700      960(1)  1380   
                                           T        V       H0       H01     AOSYM     SMH    MOLCAS    OPER    ABASIS    JKOP   

              2       5        2.50       700     1000     2100     7360     7350   
                                         GEOM     BASIS     RHF    F12ABS    EF12   

 PROGRAMS   *        TOTAL   CCSD(T)        HF       INT
 CPU TIMES  *       318.80    307.56      6.80      4.35
 REAL TIME  *       328.26 SEC
 DISK USED  *         2.12 GB      
 SF USED    *         1.91 GB      
 GA USED    *         2.40 MB       (max)       0.00 MB       (current)
 **********************************************************************************************************************************

     CCSD(T)-F12        HF-SCF  
   -264.75996633   -263.76996673
 **********************************************************************************************************************************
 Variable memory released
