
 Primary working directories    : /scratch/kee
 Secondary working directories  : /scratch/kee
 Wavefunction directory         : /home/kee/wfu/
 Main file repository           : /scratch/kee/

 ARCHNAME  : Linux/x86_64
 FC        : /opt/intel/composer_xe_2015.0.090/bin/intel64/ifort
 FCVERSION : 15.0.0
 BLASLIB   : -L/opt/intel/mkl/lib/intel64 -lmkl_intel_ilp64 -lmkl_sequential -lmkl_core
 id        : emory

 Nodes     nprocs
 node18       3
 Number of processes for MPI-2 version of Molpro:   nprocs(total)=    4   nprocs(compute)=    3   nprocs(helper)=    1
 ga_uses_ma=false, calling ma_init with nominal heap.
 GA-space will be limited to   8.0 MW (determined by -G option)

 Using customized tuning parameters: mindgm=7; mindgv=32; mindgc=1; mindgr=1; noblas=0; mincuda=1000; minvec=7
 default implementation of scratch files=sf  

 ***,co2h2o
 memory,100,m
 basis avtz
 geomtype = xyz
 geometry = {
 6
       0.00000000
 O     0.00351000    1.16210700    0.00000000
 O     0.00351000   -1.16210700    0.00000000
 O    10.16968000    0.00000000    0.00000000
 H    10.75589800    0.00000000    0.75853100
 H    10.75589800    0.00000000   -0.75853100
 C     0.01968000    0.00000000    0.00000000
 }
 hf
 ccsd(t)-f12
 ---

 Variables initialized (665), CPU time= 0.01 sec
 Commands  initialized (462), CPU time= 0.00 sec, 486 directives.
 Default parameters read. Elapsed time= 0.03 sec

 Checking input...
 Passed
1


                                         ***  PROGRAM SYSTEM MOLPRO  ***
                         Copyright, University College Cardiff Consultants Limited, 2008

                                    Version 2010.1 linked 9 Dec 2014 15:06:28 


 **********************************************************************************************************************************
 LABEL *   co2h2o                                                                        
 Linux-2.6.32-504.el6.x86_64/node18(x86_64) 64 bit mpp version                           DATE: 12-Dec-16          TIME: 14:33:06  
 **********************************************************************************************************************************

 Patch level:      19
 **********************************************************************************************************************************

 Variable memory set to  100000000 words,  buffer space   230000 words

 SETTING BASIS          =    AVTZ
 SETTING GEOMTYPE       =    XYZ

Geometry recognized as XYZ



 Recomputing integrals since basis changed


 Using spherical harmonics

 Library entry O      S aug-cc-pVTZ          selected for orbital group  1
 Library entry O      P aug-cc-pVTZ          selected for orbital group  1
 Library entry O      D aug-cc-pVTZ          selected for orbital group  1
 Library entry O      F aug-cc-pVTZ          selected for orbital group  1
 Library entry H      S aug-cc-pVTZ          selected for orbital group  2
 Library entry H      P aug-cc-pVTZ          selected for orbital group  2
 Library entry H      D aug-cc-pVTZ          selected for orbital group  2
 Library entry C      S aug-cc-pVTZ          selected for orbital group  3
 Library entry C      P aug-cc-pVTZ          selected for orbital group  3
 Library entry C      D aug-cc-pVTZ          selected for orbital group  3
 Library entry C      F aug-cc-pVTZ          selected for orbital group  3

1PROGRAM * SEWARD (Integral evaluation for generally contracted gaussian basis sets)     Author: Roland Lindh, 1990

 Geometry written to block  1 of record 700


 Point group  C2v 



 ATOMIC COORDINATES

 NR  ATOM    CHARGE       X              Y              Z

   1  O       8.00    0.006632939    2.196063965    0.000000000
   2  O       8.00    0.006632939   -2.196063965    0.000000000
   3  O       8.00   19.217910044    0.000000000    0.000000000
   4  H       1.00   20.325701518    0.000000000    1.433415852
   5  H       1.00   20.325701518    0.000000000   -1.433415852
   6  C       6.00    0.037189810    0.000000000    0.000000000

 Bond lengths in Bohr (Angstrom)

 1-6  2.196276545  2-6  2.196276545  3-4  1.811596797  3-5  1.811596797
     (1.162219492)     (1.162219492)     (0.958655737)     (0.958655737)

 Bond angles

  1-6-2  178.40563223   4-3-5  104.60391356

 NUCLEAR CHARGE:                   32
 NUMBER OF PRIMITIVE AOS:         322
 NUMBER OF SYMMETRY AOS:          282
 NUMBER OF CONTRACTIONS:          230   (  84A1  +  59B1  +  54B2  +  33A2  )
 NUMBER OF CORE ORBITALS:           4   (   3A1  +   1B1  +   0B2  +   0A2  )
 NUMBER OF VALENCE ORBITALS:       18   (   8A1  +   5B1  +   4B2  +   1A2  )


 NUCLEAR REPULSION ENERGY   78.73674561


 Eigenvalues of metric

         1 0.384E-03 0.420E-03 0.903E-03 0.186E-02 0.317E-02 0.321E-02 0.405E-02 0.540E-02
         2 0.349E-03 0.922E-03 0.175E-02 0.348E-02 0.596E-02 0.744E-02 0.205E-01 0.216E-01
         3 0.394E-03 0.167E-02 0.318E-02 0.509E-02 0.622E-02 0.100E-01 0.136E-01 0.156E-01
         4 0.348E-02 0.124E-01 0.296E-01 0.363E-01 0.561E-01 0.679E-01 0.110E+00 0.139E+00


 Contracted 2-electron integrals neglected if value below      1.0D-11
 AO integral compression algorithm  1   Integral accuracy      1.0D-11

     147.325 MB (compressed) written to integral file ( 26.7%)

     Node minimum: 39.846 MB, node maximum: 57.410 MB


 NUMBER OF SORTED TWO-ELECTRON INTEGRALS:   29979201.     BUFFER LENGTH:  32768
 NUMBER OF SEGMENTS:   2  SEGMENT LENGTH:   15996954      RECORD LENGTH: 524288

 Memory used in sort:      16.55 MW

 SORT1 READ    68966600. AND WROTE     8805100. INTEGRALS IN     26 RECORDS. CPU TIME:     1.21 SEC, REAL TIME:     1.35 SEC
 SORT2 READ    26310392. AND WROTE    89930217. INTEGRALS IN    657 RECORDS. CPU TIME:     0.39 SEC, REAL TIME:     0.50 SEC

 Node minimum:    29974277.  Node maximum:    29979201. integrals

 OPERATOR DM      FOR CENTER  0  COORDINATES:    0.000000    0.000000    0.000000


 **********************************************************************************************************************************
 DATASETS  * FILE   NREC   LENGTH (MB)   RECORD NAMES
              1      18        3.23       500      610      700      900      950      970     1000      129      960     1100   
                                          VAR    BASINP    GEOM    SYMINP    ZMAT    AOBASIS   BASIS     P2S    ABASIS      S 
                                         1400     1410     1200     1210     1080     1600     1650     1700   
                                           T        V       H0       H01     AOSYM     SMH    MOLCAS    OPER   

 PROGRAMS   *        TOTAL       INT
 CPU TIMES  *         3.00      2.93
 REAL TIME  *         3.53 SEC
 DISK USED  *       459.18 MB      
 GA USED    *         0.00 MB       (max)       0.00 MB       (current)
 **********************************************************************************************************************************

1PROGRAM * RHF-SCF (CLOSED SHELL)       Authors: W. Meyer, H.-J. Werner


 NUMBER OF ELECTRONS:      16+   16-
 CONVERGENCE THRESHOLDS:    1.00E-05 (Density)    1.00E-07 (Energy)
 MAX. NUMBER OF ITERATIONS:       60
 INTERPOLATION TYPE:            DIIS
 INTERPOLATION STEPS:              2 (START)      1 (STEP)
 LEVEL SHIFTS:                  0.00 (CLOSED)  0.00 (OPEN) 



 Orbital guess generated from atomic densities. Full valence occupancy:   11   6   4   1

 Molecular orbital dump at record        2100.2

 Initial alpha occupancy:   8   5   2   1
 Initial beta  occupancy:   8   5   2   1
 Wave function symmetry:    1

 ITERATION    DDIFF          GRAD             ENERGY        2-EL.EN.            DIPOLE MOMENTS         DIIS
    1      0.000D+00      0.000D+00      -263.66023664    353.004184    1.18059    0.00000    0.00000    0
    2      0.000D+00      0.889D-02      -263.72554558    348.436468    0.68296    0.00000    0.00000    1
    3      0.143D-01      0.604D-02      -263.76891849    350.997784    0.80657    0.00000    0.00000    2
    4      0.588D-02      0.568D-03      -263.76941370    350.784878    0.81018    0.00000    0.00000    3
    5      0.694D-03      0.165D-03      -263.76947174    350.787650    0.80469    0.00000    0.00000    4
    6      0.258D-03      0.666D-04      -263.76947891    350.801990    0.80540    0.00000    0.00000    5
    7      0.855D-04      0.163D-04      -263.76947964    350.793675    0.80495    0.00000    0.00000    6
    8      0.280D-04      0.359D-05      -263.76947969    350.794975    0.80496    0.00000    0.00000    7
    9      0.768D-05      0.121D-05      -263.76947969    350.794784    0.80493    0.00000    0.00000    0

 Final occupancy:   8   5   2   1

 !RHF STATE 1.1 Energy               -263.769479689537
 Nuclear energy                        78.73674561
 One-electron energy                 -517.90361748
 Two-electron energy                  175.39739219
 Virial quotient                       -1.00182673
 !RHF STATE 1.1 Dipole moment           0.80492727     0.00000000     0.00000000
 Dipole moment /Debye                   2.04578705     0.00000000     0.00000000

 Orbital energies:

         1.1          2.1          3.1          4.1          5.1          6.1          7.1          8.1          9.1         10.1
    -20.651390   -20.567722   -11.460212    -1.529048    -1.353124    -0.799304    -0.713102    -0.584833     0.029008     0.049428

         1.2          2.2          3.2          4.2          5.2          6.2          7.2
    -20.651436    -1.475966    -0.741543    -0.542744    -0.510537     0.080764     0.158236

         1.3          2.3          3.3          4.3
     -0.717562    -0.713124     0.047421     0.074808

         1.4          2.4          3.4
     -0.542770     0.165604     0.264966


 **********************************************************************************************************************************
 DATASETS  * FILE   NREC   LENGTH (MB)   RECORD NAMES
              1      18        3.25       500      610      700      900      950      970     1000      129      960     1100   
                                          VAR    BASINP    GEOM    SYMINP    ZMAT    AOBASIS   BASIS     P2S    ABASIS      S 
                                         1400     1410     1200     1210     1080     1600     1650     1700   
                                           T        V       H0       H01     AOSYM     SMH    MOLCAS    OPER   

              2       3        0.67       700     1000     2100   
                                         GEOM     BASIS     RHF  

 PROGRAMS   *        TOTAL        HF       INT
 CPU TIMES  *         4.01      1.00      2.93
 REAL TIME  *         4.59 SEC
 DISK USED  *       476.58 MB      
 SF USED    *         0.06 MB      
 GA USED    *         0.00 MB       (max)       0.00 MB       (current)
 **********************************************************************************************************************************


1PROGRAM * CCSD (Closed-shell coupled cluster)     Authors: C. Hampel, H.-J. Werner, 1991, M. Deegan, P.J. Knowles, 1992

                                  CCSD-F12 implementation by  H.-J. Werner, 2007

                   Density fitting integral evaluation by F.R. Manby, 2003,2007, G. Knizia, 2010

 Basis set CC-PVTZ/JKFIT generated.      Number of basis functions:   376 
 Basis set AUG-CC-PVTZ/MP2FIT generated. Number of basis functions:   516 

 Convergence thresholds:  THRVAR = 1.00D-08  THRDEN = 1.00D-06

 CCSD(T)     terms to be evaluated (factor= 1.000)


 Number of core orbitals:           4 (   3   1   0   0 )
 Number of closed-shell orbitals:  12 (   5   4   2   1 )
 Number of external orbitals:     214 (  76  54  52  32 )

 Molecular orbitals read from record     2100.2  Type=RHF/CANONICAL (state 1.1)

 MP2-F12 correlation treatment (H.-J. Werner, 2006)
 --------------------------------------------------

 Using MP2-F12 with ansatz 3C(FIX)

 Using projected zeroth-order Hamiltonian (+Z)

 FOCKRIB=T FOCKRIC=T FOCKRIP=T CABSP=T CABSA=T CABSK=T CABSF=T GBC=F EBC=F DMAT=T NOFIK=T NOPAO=1 SOLVE=-1  USEPAO=0
 EXCH_A= T EXCH_B= F EXCH_C= F EXCH_P= F
 
 Geminal basis:    OPTFULL  GEM_TYPE=SLATER  BETA=1.0  NGEM=6

 Optimizing Gaussian exponents for each gem_beta

 Geminal optimization for beta= 1.0000
 Weight function:   m=0, omega= 1.4646

 Augmented Hessian optimization of geminal fit. Trust ratio= 0.40000
 Convergence reached after   2 iterations. Final gradient= 8.24D-16, Step= 4.32D-06, Delta= 1.28D-09
 
 Alpha:                 0.19532     0.81920     2.85917     9.50073    35.69989   197.79328
 Coeff:                 0.27070     0.30552     0.18297     0.10986     0.06810     0.04224
 

 Symmetry turned off. Reference energy:       -263.769479689537

 All pairs explicitly correlated. Number of r12-pairs:           78
 
 AO(A)-basis ORBITAL           loaded. Number of functions:     230
 RI(R)-basis CC-PVTZ/JKFIT     loaded. Number of functions:     376
 DF-basis CC-PVTZ/JKFIT        loaded. Number of functions:     376

 Screening thresholds:   THRAO=  1.00D-10  THRMO=  1.00D-09  THRPROD=  1.00D-09
                         THRSW=  1.00D-05  THROV=  1.00D-12  THRF12=   1.00D-08

 CPU time for Fock operators                      0.94 sec
 
 Construction of ABS:
 Smallest eigenvalue of S          2.57E-04  (threshold= 1.00E-08)
 Ratio eigmin/eigmax               1.83E-06  (threshold= 1.00E-09)
 Smallest eigenvalue of S kept     2.57E-04  (threshold= 2.57E-04, 0 functions deleted, 376 kept)
 
 Construction of CABS:
 Smallest eigenvalue of S          2.30E-08  (threshold= 1.00E-08)
 Ratio eigmin/eigmax               2.30E-08  (threshold= 1.00E-09)
 Smallest eigenvalue of S kept     2.30E-08  (threshold= 2.30E-08, 0 functions deleted, 376 kept)
 
 CPU time for CABS singles                        0.17 sec

 CABS-singles contribution of  -0.01592447 patched into reference energy.
 New reference energy        -263.78540416
 
 AO(A)-basis ORBITAL           loaded. Number of functions:     230
 RI(R)-basis CC-PVTZ/JKFIT     loaded. Number of functions:     376
 DF-basis AUG-CC-PVTZ/MP2FIT   loaded. Number of functions:     516

 Screening thresholds:   THRAO=  1.00D-10  THRMO=  1.00D-09  THRPROD=  1.00D-09
                         THRSW=  1.00D-05  THROV=  1.00D-12  THRF12=   1.00D-08

 CPU time for 3-index integral evaluation         1.71 sec
 CPU time for first  half transformation          0.21 sec ( 8580.9 MFLOP/sec)
 CPU time for second half transformation          0.02 sec ( 4248.0 MFLOP/sec)
 CPU time for sorting                             0.10 sec
 CPU time for fitting                             0.06 sec (23217.5 MFLOP/sec)
 CPU time for tilde quantities                    0.09 sec (20637.8 MFLOP/sec)
 CPU time for assembly                            0.88 sec (27196.8 MFLOP/sec)
 CPU time for tranop_f12                          0.97 sec (31934.4 MFLOP/sec)
 CPU time for f12 integrals (total)               6.27 sec
 F12-matrices built in  3 passes.
 F12-matrices built in  3 passes.
 F12-matrices built in  3 passes.
 F12-matrices built in  3 passes.
 FC-matrix built in  3 passes.
 CPU time for f12 matrices (total)                0.56 sec

 Diagonal F12 approximation with fixed coefficients:  TSING= 0.500,  TTRIP= 0.250 (scaled by -1/beta)

 DF-MP2-F12 energy corrections:
 ------------------------------
 Approx.                                    Singlet             Triplet             Total
 DF-MP2-F12/3*C(DX,FIX)                -0.097450989933     -0.016933914130     -0.114384904064
 DF-MP2-F12/3*C(FIX)                   -0.079865786428     -0.013395967390     -0.093261753818
 DF-MP2-F12/3C(FIX)                    -0.080226884190     -0.013419275900     -0.093646160090

 DF-MP2-F12 correlation energies:
 --------------------------------
 Approx.                                    Singlet             Triplet             Ecorr            Total Energy
 DF-MP2                                -0.537745275163     -0.343083819380     -0.880829094543   -264.666233250370
 DF-MP2-F12/3*C(DX,FIX)                -0.635196265097     -0.360017733510     -0.995213998607   -264.780618154433
 DF-MP2-F12/3*C(FIX)                   -0.617611061591     -0.356479786770     -0.974090848361   -264.759495004188
 DF-MP2-F12/3C(FIX)                    -0.617972159353     -0.356503095280     -0.974475254633   -264.759879410459

 SCS-DF-MP2 energies (F_SING= 1.20000  F_TRIP= 0.62222  F_PARALLEL= 0.33333):
 ----------------------------------------------------------------------------
 SCS-DF-MP2                            -0.858768706699   -264.644172862526
 SCS-DF-MP2-F12/3*C(DX,FIX)            -0.986246552300   -264.771650708127
 SCS-DF-MP2-F12/3*C(FIX)               -0.962942919011   -264.748347074837
 SCS-DF-MP2-F12/3C(FIX)                -0.963390739398   -264.748794895224

 Symmetry restored.
 Symmetry transformation completed.

 Number of N-1 electron functions:              12
 Number of N-2 electron functions:              78
 Number of singly external CSFs:               732
 Number of doubly external CSFs:            836016
 Total number of CSFs:                      836749

 Pair and operator lists are different

 Length of J-op  integral file:             462.26 MB
 Length of K-op  integral file:             502.03 MB
 Length of 3-ext integral record:             0.00 MB

 Memory could be reduced to 38.69 Mwords without degradation in triples

 Integral transformation finished. Total CPU:   1.46 sec, npass=  1  Memory used:   6.07 MW

 Reference energy:                   -263.78540416

 Adding F12 terms to K(Cij), methodcc=6,  factor=1.0

 ITER.      SQ.NORM     CORR.ENERGY   TOTAL ENERGY   ENERGY CHANGE        DEN1      VAR(S)    VAR(P)  DIIS     TIME
   1      1.20216159    -0.86277673  -264.64818088     0.01806881     0.04670685  0.72D-02  0.56D-02  1  1    10.72
   2      1.21647663    -0.85854834  -264.64395250     0.00422839    -0.02015603  0.86D-04  0.59D-03  2  2    11.71
   3      1.22183831    -0.85864442  -264.64404857    -0.00009608    -0.00236443  0.13D-03  0.32D-04  3  3    12.70
   4      1.22464077    -0.85851648  -264.64392064     0.00012793    -0.00141157  0.76D-05  0.41D-05  4  4    13.70
   5      1.22567100    -0.85847877  -264.64388293     0.00003771    -0.00036648  0.55D-06  0.29D-06  5  5    14.72
   6      1.22583317    -0.85845191  -264.64385607     0.00002686    -0.00000805  0.40D-07  0.24D-07  6  6    15.72
   7      1.22586252    -0.85844949  -264.64385364     0.00000242    -0.00000622  0.25D-08  0.40D-08  6  4    16.75
   8      1.22586282    -0.85844900  -264.64385315     0.00000049     0.00000195  0.39D-09  0.27D-09  6  1    17.76
   9      1.22586343    -0.85844906  -264.64385322    -0.00000007     0.00000056  0.25D-10  0.21D-10  6  2    18.78

 Norm of t1 vector:      0.10597351      S-energy:    -0.00000003      T1 diagnostic:  0.01529596
                                                                       D1 diagnostic:  0.04494787

 Adding energy correction from Wij-K(Fij), methodcc=6  factor=1.0
 
  CCSD correlation energy              -0.858449062576
  MP2-F12 correction (uncoupled)       -0.092488744657
  C*T doubles correction               -0.001475999729
  f12b correction                       0.015406926791


 Total CPU time for triples:     28.60 sec


 RESULTS
 =======

  Reference energy                   -263.769479689537
  F12 singles correction               -0.015924466290

 F12 singles corrections added to reference energy

  New reference energy               -263.785404155826

  F12a singlet correction              -0.080426873710
  F12a triplet correction              -0.013537870676
  F12a total correction                -0.093964744386

 F12a corrections for ansatz F12/3C(FIX) added to CCSD energy
 
  CCSD-F12a singlet pair energy        -0.641909564115
  CCSD-F12a triplet pair energy        -0.310504215959
  CCSD-F12a correlation energy         -0.952413806962

  Triples (T) contribution             -0.037642372554
  Total correlation energy             -0.990056179516

  CCSD-F12a total energy             -264.737817962788
  CCSD[T]-F12a energy                -264.778004634347
  CCSD-T-F12a energy                 -264.774522475414
 !CCSD(T)-F12a total energy          -264.775460335342

 F12b corrections for ansatz F12/3C(FIX) added to CCSD(T)-F12a energy

  CCSD-F12b singlet pair energy        -0.627725924231
  CCSD-F12b triplet pair energy        -0.309280929051
  CCSD-F12b correlation energy         -0.937006880171

  Triples (T) contribution             -0.037642372554
  Total correlation energy             -0.974649252725

  CCSD-F12b total energy             -264.722411035997
  CCSD[T]-F12b energy                -264.762597707556
  CCSD-T-F12b energy                 -264.759115548623
 !CCSD(T)-F12b total energy          -264.760053408552

 Timing summary (sec):

 STEP                 CPU(USER)    SYS     CPU(TOT)    WALL
 Transformation          1.47      0.22      1.69      1.70
 CCSD iterations         9.00      0.65      9.65      9.63
 Triples                28.60      0.91     29.51     29.55
 MP2-F12                 8.33      1.16      9.49      9.49
 F12b energy             0.60      0.01      0.61      0.61

 Program statistics:

 Available memory in ccsd:                99998934
 Min. memory needed in ccsd:               2244783
 Max. memory used in ccsd:                 3005571
 Max. memory used in cckext:               2769663 (10 integral passes)



 **********************************************************************************************************************************
 DATASETS  * FILE   NREC   LENGTH (MB)   RECORD NAMES
              1      20      137.19       500      610      700      900      950      970     1000      129      960     1100   
                                          VAR    BASINP    GEOM    SYMINP    ZMAT    AOBASIS   BASIS     P2S    ABASIS      S 
                                         1400     1410     1200     1210     1080     1600     1650     1700      960(1)  1380   
                                           T        V       H0       H01     AOSYM     SMH    MOLCAS    OPER    ABASIS    JKOP   

              2       5        0.97       700     1000     2100     7360     7350   
                                         GEOM     BASIS     RHF    F12ABS    EF12   

 PROGRAMS   *        TOTAL   CCSD(T)        HF       INT
 CPU TIMES  *        52.27     48.26      1.00      2.93
 REAL TIME  *        55.85 SEC
 DISK USED  *       698.24 MB      
 SF USED    *         1.34 GB      
 GA USED    *         2.40 MB       (max)       0.00 MB       (current)
 **********************************************************************************************************************************

     CCSD(T)-F12        HF-SCF  
   -264.76005341   -263.76947969
 **********************************************************************************************************************************
 Variable memory released
