
 Primary working directories    : /scratch/kee
 Secondary working directories  : /scratch/kee
 Wavefunction directory         : /home/kee/wfu/
 Main file repository           : /scratch/kee/

 ARCHNAME  : Linux/x86_64
 FC        : /opt/intel/composer_xe_2015.0.090/bin/intel64/ifort
 FCVERSION : 15.0.0
 BLASLIB   : -L/opt/intel/mkl/lib/intel64 -lmkl_intel_ilp64 -lmkl_sequential -lmkl_core
 id        : emory

 Nodes     nprocs
 node23       3
 Number of processes for MPI-2 version of Molpro:   nprocs(total)=    4   nprocs(compute)=    3   nprocs(helper)=    1
 ga_uses_ma=false, calling ma_init with nominal heap.
 GA-space will be limited to   8.0 MW (determined by -G option)

 Using customized tuning parameters: mindgm=7; mindgv=32; mindgc=1; mindgr=1; noblas=0; mincuda=1000; minvec=7
 default implementation of scratch files=sf  

 ***,co2h2o
 memory,100,m
 basis avtz
 geomtype = xyz
 geometry = {
 6
    -264.76489694
 O     0.82869278    1.16169550    0.00000000
 O     0.82658011   -1.16233555    0.00000000
 O    -6.19123427    0.00244523    0.00000000
 H    -6.77486728    0.76303988    0.00000000
 H    -6.77459917   -0.75835669    0.00000000
 C     0.80876519   -0.00029961    0.00000000
 }
 hf
 ccsd(t)-f12
 ---

 Variables initialized (665), CPU time= 0.00 sec
 Commands  initialized (462), CPU time= 0.01 sec, 486 directives.
 Default parameters read. Elapsed time= 0.04 sec

 Checking input...
 Passed
1


                                         ***  PROGRAM SYSTEM MOLPRO  ***
                         Copyright, University College Cardiff Consultants Limited, 2008

                                    Version 2010.1 linked 9 Dec 2014 15:06:28 


 **********************************************************************************************************************************
 LABEL *   co2h2o                                                                        
 Linux-2.6.32-504.el6.x86_64/node23(x86_64) 64 bit mpp version                           DATE: 07-Dec-16          TIME: 00:13:25  
 **********************************************************************************************************************************

 Patch level:      19
 **********************************************************************************************************************************

 Variable memory set to  100000000 words,  buffer space   230000 words

 SETTING BASIS          =    AVTZ
 SETTING GEOMTYPE       =    XYZ

Geometry recognized as XYZ



 Recomputing integrals since basis changed


 Using spherical harmonics

 Library entry O      S aug-cc-pVTZ          selected for orbital group  1
 Library entry O      P aug-cc-pVTZ          selected for orbital group  1
 Library entry O      D aug-cc-pVTZ          selected for orbital group  1
 Library entry O      F aug-cc-pVTZ          selected for orbital group  1
 Library entry H      S aug-cc-pVTZ          selected for orbital group  2
 Library entry H      P aug-cc-pVTZ          selected for orbital group  2
 Library entry H      D aug-cc-pVTZ          selected for orbital group  2
 Library entry C      S aug-cc-pVTZ          selected for orbital group  3
 Library entry C      P aug-cc-pVTZ          selected for orbital group  3
 Library entry C      D aug-cc-pVTZ          selected for orbital group  3
 Library entry C      F aug-cc-pVTZ          selected for orbital group  3

1PROGRAM * SEWARD (Integral evaluation for generally contracted gaussian basis sets)     Author: Roland Lindh, 1990

 Geometry written to block  1 of record 700


 Point group  Cs  



 ATOMIC COORDINATES

 NR  ATOM    CHARGE       X              Y              Z

   1  O       8.00    1.566002401    2.195286343    0.000000000
   2  O       8.00    1.562010034   -2.196495862    0.000000000
   3  O       8.00  -11.699737186    0.004620815    0.000000000
   4  H       1.00  -12.802643736    1.441936401    0.000000000
   5  H       1.00  -12.802137081   -1.433086454    0.000000000
   6  C       6.00    1.528344714   -0.000566181    0.000000000

 Bond lengths in Bohr (Angstrom)

 1-6  2.196175405  2-6  2.196187724  3-4  1.811706088  3-5  1.811708509
     (1.162165971)     (1.162172490)     (0.958713571)     (0.958714852)

 Bond angles

  1-6-2  178.13918425   4-3-5  105.01947441

 NUCLEAR CHARGE:                   32
 NUMBER OF PRIMITIVE AOS:         322
 NUMBER OF SYMMETRY AOS:          282
 NUMBER OF CONTRACTIONS:          230   ( 152A'  +  78A"  )
 NUMBER OF CORE ORBITALS:           4   (   4A'  +   0A"  )
 NUMBER OF VALENCE ORBITALS:       18   (  14A'  +   4A"  )


 NUCLEAR REPULSION ENERGY   83.63864217


 Eigenvalues of metric

         1 0.349E-03 0.374E-03 0.393E-03 0.398E-03 0.900E-03 0.922E-03 0.166E-02 0.175E-02
         2 0.318E-02 0.348E-02 0.593E-02 0.124E-01 0.136E-01 0.295E-01 0.296E-01 0.318E-01


 Contracted 2-electron integrals neglected if value below      1.0D-11
 AO integral compression algorithm  1   Integral accuracy      1.0D-11

     341.311 MB (compressed) written to integral file ( 23.4%)

     Node minimum: 88.605 MB, node maximum: 128.188 MB


 NUMBER OF SORTED TWO-ELECTRON INTEGRALS:   59950380.     BUFFER LENGTH:  32768
 NUMBER OF SEGMENTS:   4  SEGMENT LENGTH:   15995235      RECORD LENGTH: 524288

 Memory used in sort:      16.55 MW

 SORT1 READ   182195541. AND WROTE    24303850. INTEGRALS IN     71 RECORDS. CPU TIME:     2.21 SEC, REAL TIME:     2.59 SEC
 SORT2 READ    73152224. AND WROTE   179836431. INTEGRALS IN   1014 RECORDS. CPU TIME:     0.78 SEC, REAL TIME:     1.01 SEC

 Node minimum:    59940574.  Node maximum:    59950380. integrals

 OPERATOR DM      FOR CENTER  0  COORDINATES:    0.000000    0.000000    0.000000


 **********************************************************************************************************************************
 DATASETS  * FILE   NREC   LENGTH (MB)   RECORD NAMES
              1      18        3.74       500      610      700      900      950      970     1000      129      960     1100   
                                          VAR    BASINP    GEOM    SYMINP    ZMAT    AOBASIS   BASIS     P2S    ABASIS      S 
                                         1400     1410     1200     1210     1080     1600     1650     1700   
                                           T        V       H0       H01     AOSYM     SMH    MOLCAS    OPER   

 PROGRAMS   *        TOTAL       INT
 CPU TIMES  *         6.86      6.79
 REAL TIME  *         9.44 SEC
 DISK USED  *         1.21 GB      
 GA USED    *         0.00 MB       (max)       0.00 MB       (current)
 **********************************************************************************************************************************

1PROGRAM * RHF-SCF (CLOSED SHELL)       Authors: W. Meyer, H.-J. Werner


 NUMBER OF ELECTRONS:      16+   16-
 CONVERGENCE THRESHOLDS:    1.00E-05 (Density)    1.00E-07 (Energy)
 MAX. NUMBER OF ITERATIONS:       60
 INTERPOLATION TYPE:            DIIS
 INTERPOLATION STEPS:              2 (START)      1 (STEP)
 LEVEL SHIFTS:                  0.00 (CLOSED)  0.00 (OPEN) 



 Orbital guess generated from atomic densities. Full valence occupancy:   18   4

 Molecular orbital dump at record        2100.2

 Initial alpha occupancy:  13   3
 Initial beta  occupancy:  13   3
 Wave function symmetry:    1

 ITERATION    DDIFF          GRAD             ENERGY        2-EL.EN.            DIPOLE MOMENTS         DIIS
    1      0.000D+00      0.000D+00      -263.66061625    362.927074   -1.18421   -0.00012    0.00000    0
    2      0.000D+00      0.629D-02      -263.72582683    358.319286   -0.69133   -0.00010    0.00000    1
    3      0.101D-01      0.427D-02      -263.76905106    360.885060   -0.81387   -0.00009    0.00000    2
    4      0.415D-02      0.402D-03      -263.76954609    360.673631   -0.81714   -0.00009    0.00000    3
    5      0.485D-03      0.117D-03      -263.76960408    360.675426   -0.81177   -0.00009    0.00000    4
    6      0.181D-03      0.472D-04      -263.76961125    360.689969   -0.81245   -0.00009    0.00000    5
    7      0.604D-04      0.116D-04      -263.76961198    360.681598   -0.81201   -0.00009    0.00000    6
    8      0.197D-04      0.254D-05      -263.76961203    360.682900   -0.81201   -0.00009    0.00000    7
    9      0.541D-05      0.851D-06      -263.76961203    360.682706   -0.81198   -0.00009    0.00000    0

 Final occupancy:  13   3

 !RHF STATE 1.1 Energy               -263.769612029362
 Nuclear energy                        83.63864217
 One-electron energy                 -527.74960718
 Two-electron energy                  180.34135299
 Virial quotient                       -1.00182992
 !RHF STATE 1.1 Dipole moment          -0.81198359    -0.00009169     0.00000000
 Dipole moment /Debye                  -2.06372125    -0.00023304     0.00000000

 Orbital energies:

         1.1          2.1          3.1          4.1          5.1          6.1          7.1          8.1          9.1         10.1
    -20.649274   -20.649228   -20.568149   -11.458081    -1.526937    -1.473843    -1.353399    -0.797208    -0.739469    -0.718930

        11.1         12.1         13.1         14.1         15.1
     -0.710944    -0.584671    -0.540609     0.028267     0.047049

         1.2          2.2          3.2          4.2          5.2
     -0.711016    -0.540662    -0.511030     0.076357     0.157883


 **********************************************************************************************************************************
 DATASETS  * FILE   NREC   LENGTH (MB)   RECORD NAMES
              1      18        3.76       500      610      700      900      950      970     1000      129      960     1100   
                                          VAR    BASINP    GEOM    SYMINP    ZMAT    AOBASIS   BASIS     P2S    ABASIS      S 
                                         1400     1410     1200     1210     1080     1600     1650     1700   
                                           T        V       H0       H01     AOSYM     SMH    MOLCAS    OPER   

              2       3        0.96       700     1000     2100   
                                         GEOM     BASIS     RHF  

 PROGRAMS   *        TOTAL        HF       INT
 CPU TIMES  *        10.57      3.71      6.79
 REAL TIME  *        13.33 SEC
 DISK USED  *         1.24 GB      
 SF USED    *         0.12 MB      
 GA USED    *         0.00 MB       (max)       0.00 MB       (current)
 **********************************************************************************************************************************


1PROGRAM * CCSD (Closed-shell coupled cluster)     Authors: C. Hampel, H.-J. Werner, 1991, M. Deegan, P.J. Knowles, 1992

                                  CCSD-F12 implementation by  H.-J. Werner, 2007

                   Density fitting integral evaluation by F.R. Manby, 2003,2007, G. Knizia, 2010

 Basis set CC-PVTZ/JKFIT generated.      Number of basis functions:   376 
 Basis set AUG-CC-PVTZ/MP2FIT generated. Number of basis functions:   516 

 Convergence thresholds:  THRVAR = 1.00D-08  THRDEN = 1.00D-06

 CCSD(T)     terms to be evaluated (factor= 1.000)


 Number of core orbitals:           4 (   4   0 )
 Number of closed-shell orbitals:  12 (   9   3 )
 Number of external orbitals:     214 ( 139  75 )

 Molecular orbitals read from record     2100.2  Type=RHF/CANONICAL (state 1.1)

 MP2-F12 correlation treatment (H.-J. Werner, 2006)
 --------------------------------------------------

 Using MP2-F12 with ansatz 3C(FIX)

 Using projected zeroth-order Hamiltonian (+Z)

 FOCKRIB=T FOCKRIC=T FOCKRIP=T CABSP=T CABSA=T CABSK=T CABSF=T GBC=F EBC=F DMAT=T NOFIK=T NOPAO=1 SOLVE=-1  USEPAO=0
 EXCH_A= T EXCH_B= F EXCH_C= F EXCH_P= F
 
 Geminal basis:    OPTFULL  GEM_TYPE=SLATER  BETA=1.0  NGEM=6

 Optimizing Gaussian exponents for each gem_beta

 Geminal optimization for beta= 1.0000
 Weight function:   m=0, omega= 1.4646

 Augmented Hessian optimization of geminal fit. Trust ratio= 0.40000
 Convergence reached after   2 iterations. Final gradient= 8.24D-16, Step= 4.32D-06, Delta= 1.28D-09
 
 Alpha:                 0.19532     0.81920     2.85917     9.50073    35.69989   197.79328
 Coeff:                 0.27070     0.30552     0.18297     0.10986     0.06810     0.04224
 

 Symmetry turned off. Reference energy:       -263.769612029362

 All pairs explicitly correlated. Number of r12-pairs:           78
 
 AO(A)-basis ORBITAL           loaded. Number of functions:     230
 RI(R)-basis CC-PVTZ/JKFIT     loaded. Number of functions:     376
 DF-basis CC-PVTZ/JKFIT        loaded. Number of functions:     376

 Screening thresholds:   THRAO=  1.00D-10  THRMO=  1.00D-09  THRPROD=  1.00D-09
                         THRSW=  1.00D-05  THROV=  1.00D-12  THRF12=   1.00D-08

 CPU time for Fock operators                      0.99 sec
 
 Construction of ABS:
 Smallest eigenvalue of S          2.57E-04  (threshold= 1.00E-08)
 Ratio eigmin/eigmax               1.83E-06  (threshold= 1.00E-09)
 Smallest eigenvalue of S kept     2.57E-04  (threshold= 2.57E-04, 0 functions deleted, 376 kept)
 
 Construction of CABS:
 Smallest eigenvalue of S          2.30E-08  (threshold= 1.00E-08)
 Ratio eigmin/eigmax               2.30E-08  (threshold= 1.00E-09)
 Smallest eigenvalue of S kept     2.30E-08  (threshold= 2.30E-08, 0 functions deleted, 376 kept)
 
 CPU time for CABS singles                        0.19 sec

 CABS-singles contribution of  -0.01592310 patched into reference energy.
 New reference energy        -263.78553513
 
 AO(A)-basis ORBITAL           loaded. Number of functions:     230
 RI(R)-basis CC-PVTZ/JKFIT     loaded. Number of functions:     376
 DF-basis AUG-CC-PVTZ/MP2FIT   loaded. Number of functions:     516

 Screening thresholds:   THRAO=  1.00D-10  THRMO=  1.00D-09  THRPROD=  1.00D-09
                         THRSW=  1.00D-05  THROV=  1.00D-12  THRF12=   1.00D-08

 CPU time for 3-index integral evaluation         2.36 sec
 CPU time for first  half transformation          0.29 sec ( 7776.3 MFLOP/sec)
 CPU time for second half transformation          0.03 sec ( 2867.2 MFLOP/sec)
 CPU time for sorting                             0.15 sec
 CPU time for fitting                             0.06 sec (22933.5 MFLOP/sec)
 CPU time for tilde quantities                    0.08 sec (21367.0 MFLOP/sec)
 CPU time for assembly                            0.92 sec (24587.9 MFLOP/sec)
 CPU time for tranop_f12                          1.09 sec (24682.6 MFLOP/sec)
 CPU time for f12 integrals (total)               8.38 sec
 F12-matrices built in  3 passes.
 F12-matrices built in  3 passes.
 F12-matrices built in  3 passes.
 F12-matrices built in  3 passes.
 FC-matrix built in  3 passes.
 CPU time for f12 matrices (total)                0.74 sec

 Diagonal F12 approximation with fixed coefficients:  TSING= 0.500,  TTRIP= 0.250 (scaled by -1/beta)

 DF-MP2-F12 energy corrections:
 ------------------------------
 Approx.                                    Singlet             Triplet             Total
 DF-MP2-F12/3*C(DX,FIX)                -0.097451588250     -0.016933869528     -0.114385457778
 DF-MP2-F12/3*C(FIX)                   -0.079868232742     -0.013395979051     -0.093264211793
 DF-MP2-F12/3C(FIX)                    -0.080228798290     -0.013419107359     -0.093647905649

 DF-MP2-F12 correlation energies:
 --------------------------------
 Approx.                                    Singlet             Triplet             Ecorr            Total Energy
 DF-MP2                                -0.537712538304     -0.343061460345     -0.880773998648   -264.666309124063
 DF-MP2-F12/3*C(DX,FIX)                -0.635164126553     -0.359995329872     -0.995159456426   -264.780694581840
 DF-MP2-F12/3*C(FIX)                   -0.617580771046     -0.356457439396     -0.974038210442   -264.759573335856
 DF-MP2-F12/3C(FIX)                    -0.617941336593     -0.356480567704     -0.974421904297   -264.759957029712

 SCS-DF-MP2 energies (F_SING= 1.20000  F_TRIP= 0.62222  F_PARALLEL= 0.33333):
 ----------------------------------------------------------------------------
 SCS-DF-MP2                            -0.858715510179   -264.644250635593
 SCS-DF-MP2-F12/3*C(DX,FIX)            -0.986194046007   -264.771729171421
 SCS-DF-MP2-F12/3*C(FIX)               -0.962892665324   -264.748427790738
 SCS-DF-MP2-F12/3C(FIX)                -0.963339734928   -264.748874860342

 Symmetry restored.
 Symmetry transformation completed.

 Number of N-1 electron functions:              12
 Number of N-2 electron functions:              78
 Number of singly external CSFs:              1476
 Number of doubly external CSFs:           1686804
 Total number of CSFs:                     1688281

 Pair and operator lists are different

 Length of J-op  integral file:             466.42 MB
 Length of K-op  integral file:             526.62 MB
 Length of 3-ext integral record:             0.00 MB

 Memory could be reduced to 76.61 Mwords without degradation in triples

 Integral transformation finished. Total CPU:   5.91 sec, npass=  1  Memory used:  24.61 MW

 Reference energy:                   -263.78553513

 Adding F12 terms to K(Cij), methodcc=6,  factor=1.0

 ITER.      SQ.NORM     CORR.ENERGY   TOTAL ENERGY   ENERGY CHANGE        DEN1      VAR(S)    VAR(P)  DIIS     TIME
   1      1.20213522    -0.86273089  -264.64826602     0.01805958     0.04668533  0.72D-02  0.56D-02  1  1    21.53
   2      1.21644507    -0.85850580  -264.64404092     0.00422510    -0.02014874  0.86D-04  0.59D-03  2  2    25.97
   3      1.22180485    -0.85860221  -264.64413733    -0.00009641    -0.00236384  0.13D-03  0.32D-04  3  3    30.10
   4      1.22460631    -0.85847443  -264.64400955     0.00012778    -0.00141116  0.76D-05  0.41D-05  4  4    34.26
   5      1.22563614    -0.85843675  -264.64397187     0.00003768    -0.00036630  0.56D-06  0.29D-06  5  5    38.72
   6      1.22579831    -0.85840989  -264.64394501     0.00002686    -0.00000805  0.40D-07  0.24D-07  6  6    43.19
   7      1.22582766    -0.85840746  -264.64394259     0.00000242    -0.00000621  0.25D-08  0.40D-08  6  4    47.56
   8      1.22582796    -0.85840698  -264.64394210     0.00000049     0.00000195  0.39D-09  0.27D-09  6  1    52.04
   9      1.22582857    -0.85840704  -264.64394217    -0.00000007     0.00000056  0.26D-10  0.21D-10  6  2    56.54

 Norm of t1 vector:      0.10595316      S-energy:    -0.00000002      T1 diagnostic:  0.01529302
                                                                       D1 diagnostic:  0.04495407

 Adding energy correction from Wij-K(Fij), methodcc=6  factor=1.0
 
  CCSD correlation energy              -0.858407041817
  MP2-F12 correction (uncoupled)       -0.092491512857
  C*T doubles correction               -0.001475335419
  f12b correction                       0.015407074188


 Total CPU time for triples:     86.10 sec


 RESULTS
 =======

  Reference energy                   -263.769612029362
  F12 singles correction               -0.015923096053

 F12 singles corrections added to reference energy

  New reference energy               -263.785535125415

  F12a singlet correction              -0.080428976916
  F12a triplet correction              -0.013537871360
  F12a total correction                -0.093966848276

 F12a corrections for ansatz F12/3C(FIX) added to CCSD energy
 
  CCSD-F12a singlet pair energy        -0.641878642118
  CCSD-F12a triplet pair energy        -0.310495223244
  CCSD-F12a correlation energy         -0.952373890093

  Triples (T) contribution             -0.037635979794
  Total correlation energy             -0.990009869888

  CCSD-F12a total energy             -264.737909015508
  CCSD[T]-F12a energy                -264.778087927744
  CCSD-T-F12a energy                 -264.774607746820
 !CCSD(T)-F12a total energy          -264.775544995302

 F12b corrections for ansatz F12/3C(FIX) added to CCSD(T)-F12a energy

  CCSD-F12b singlet pair energy        -0.627694930068
  CCSD-F12b triplet pair energy        -0.309271861105
  CCSD-F12b correlation energy         -0.936966815905

  Triples (T) contribution             -0.037635979794
  Total correlation energy             -0.974602795699

  CCSD-F12b total energy             -264.722501941320
  CCSD[T]-F12b energy                -264.762680853556
  CCSD-T-F12b energy                 -264.759200672632
 !CCSD(T)-F12b total energy          -264.760137921114

 Timing summary (sec):

 STEP                 CPU(USER)    SYS     CPU(TOT)    WALL
 Transformation          5.95      0.70      6.65      8.09
 CCSD iterations        39.53      1.93     41.46     42.31
 Triples                86.10      1.81     87.91     87.89
 MP2-F12                11.07      1.29     12.36     12.44
 F12b energy             3.00      0.04      3.04      3.04

 Program statistics:

 Available memory in ccsd:                99998934
 Min. memory needed in ccsd:               4458306
 Max. memory used in ccsd:                 5958390
 Max. memory used in cckext:               6352469 (10 integral passes)



 **********************************************************************************************************************************
 DATASETS  * FILE   NREC   LENGTH (MB)   RECORD NAMES
              1      20      269.66       500      610      700      900      950      970     1000      129      960     1100   
                                          VAR    BASINP    GEOM    SYMINP    ZMAT    AOBASIS   BASIS     P2S    ABASIS      S 
                                         1400     1410     1200     1210     1080     1600     1650     1700      960(1)  1380   
                                           T        V       H0       H01     AOSYM     SMH    MOLCAS    OPER    ABASIS    JKOP   

              2       5        1.55       700     1000     2100     7360     7350   
                                         GEOM     BASIS     RHF    F12ABS    EF12   

 PROGRAMS   *        TOTAL   CCSD(T)        HF       INT
 CPU TIMES  *       156.30    145.72      3.71      6.79
 REAL TIME  *       167.46 SEC
 DISK USED  *         1.68 GB      
 SF USED    *         1.53 GB      
 GA USED    *         2.40 MB       (max)       0.00 MB       (current)
 **********************************************************************************************************************************

     CCSD(T)-F12        HF-SCF  
   -264.76013792   -263.76961203
 **********************************************************************************************************************************
 Variable memory released
