
 Primary working directories    : /scratch/kee
 Secondary working directories  : /scratch/kee
 Wavefunction directory         : /home/kee/wfu/
 Main file repository           : /scratch/kee/

 ARCHNAME  : Linux/x86_64
 FC        : /opt/intel/composer_xe_2015.0.090/bin/intel64/ifort
 FCVERSION : 15.0.0
 BLASLIB   : -L/opt/intel/mkl/lib/intel64 -lmkl_intel_ilp64 -lmkl_sequential -lmkl_core
 id        : emory

 Nodes     nprocs
 node17       3
 Number of processes for MPI-2 version of Molpro:   nprocs(total)=    4   nprocs(compute)=    3   nprocs(helper)=    1
 ga_uses_ma=false, calling ma_init with nominal heap.
 GA-space will be limited to   8.0 MW (determined by -G option)

 Using customized tuning parameters: mindgm=7; mindgv=32; mindgc=1; mindgr=1; noblas=0; mincuda=1000; minvec=7
 default implementation of scratch files=sf  

 ***,co2h2o
 memory,100,m
 basis avtz
 geomtype = xyz
 geometry = {
 6
       0.00000000
 O     0.00032100    1.15989800    0.00000000
 O     0.00041400   -1.15989400    0.00000000
 O     9.36028203    6.86377663    2.46203424
 H    10.15183654    7.17273227    2.01968560
 H     9.67426784    6.38514888    3.23015647
 C     0.01953800    0.00000300    0.00000000
 }
 hf
 ccsd(t)-f12
 ---

 Variables initialized (665), CPU time= 0.01 sec
 Commands  initialized (462), CPU time= 0.00 sec, 486 directives.
 Default parameters read. Elapsed time= 0.03 sec

 Checking input...
 Passed
1


                                         ***  PROGRAM SYSTEM MOLPRO  ***
                         Copyright, University College Cardiff Consultants Limited, 2008

                                    Version 2010.1 linked 9 Dec 2014 15:06:28 


 **********************************************************************************************************************************
 LABEL *   co2h2o                                                                        
 Linux-2.6.32-504.el6.x86_64/node17(x86_64) 64 bit mpp version                           DATE: 15-Dec-16          TIME: 00:38:23  
 **********************************************************************************************************************************

 Patch level:      19
 **********************************************************************************************************************************

 Variable memory set to  100000000 words,  buffer space   230000 words

 SETTING BASIS          =    AVTZ
 SETTING GEOMTYPE       =    XYZ

Geometry recognized as XYZ



 Recomputing integrals since basis changed


 Using spherical harmonics

 Library entry O      S aug-cc-pVTZ          selected for orbital group  1
 Library entry O      P aug-cc-pVTZ          selected for orbital group  1
 Library entry O      D aug-cc-pVTZ          selected for orbital group  1
 Library entry O      F aug-cc-pVTZ          selected for orbital group  1
 Library entry H      S aug-cc-pVTZ          selected for orbital group  2
 Library entry H      P aug-cc-pVTZ          selected for orbital group  2
 Library entry H      D aug-cc-pVTZ          selected for orbital group  2
 Library entry C      S aug-cc-pVTZ          selected for orbital group  3
 Library entry C      P aug-cc-pVTZ          selected for orbital group  3
 Library entry C      D aug-cc-pVTZ          selected for orbital group  3
 Library entry C      F aug-cc-pVTZ          selected for orbital group  3

1PROGRAM * SEWARD (Integral evaluation for generally contracted gaussian basis sets)     Author: Roland Lindh, 1990

 Geometry written to block  1 of record 700


 Point group  C1  



 ATOMIC COORDINATES

 NR  ATOM    CHARGE       X              Y              Z

   1  O       8.00    0.000606602    2.191889560    0.000000000
   2  O       8.00    0.000782347   -2.191882001    0.000000000
   3  O       8.00   17.688369550   12.970658058    4.652570440
   4  H       1.00   19.184190792   13.554499604    3.816652656
   5  H       1.00   18.281716740   12.066182692    6.104111090
   6  C       6.00    0.036921469    0.000005669    0.000000000

 Bond lengths in Bohr (Angstrom)

 1-6  2.192184701  2-6  2.192185575  3-4  1.810279172  3-5  1.810278110
     (1.160054182)     (1.160054644)     (0.957958480)     (0.957957918)

 Bond angles

  1-6-2  178.10622893   4-3-5  105.10354942

 NUCLEAR CHARGE:                   32
 NUMBER OF PRIMITIVE AOS:         322
 NUMBER OF SYMMETRY AOS:          282
 NUMBER OF CONTRACTIONS:          230   ( 230A   )
 NUMBER OF CORE ORBITALS:           4   (   4A   )
 NUMBER OF VALENCE ORBITALS:       18   (  18A   )


 NUCLEAR REPULSION ENERGY   77.32169628


 Eigenvalues of metric

         1 0.348E-03 0.384E-03 0.392E-03 0.419E-03 0.896E-03 0.914E-03 0.167E-02 0.174E-02


 Contracted 2-electron integrals neglected if value below      1.0D-11
 AO integral compression algorithm  1   Integral accuracy      1.0D-11

     380.109 MB (compressed) written to integral file ( 23.4%)

     Node minimum: 106.693 MB, node maximum: 148.374 MB


 NUMBER OF SORTED TWO-ELECTRON INTEGRALS:  117629820.     BUFFER LENGTH:  32768
 NUMBER OF SEGMENTS:   8  SEGMENT LENGTH:   15997437      RECORD LENGTH: 524288

 Memory used in sort:      16.55 MW

 SORT1 READ   203181108. AND WROTE    26268306. INTEGRALS IN     79 RECORDS. CPU TIME:     1.78 SEC, REAL TIME:     2.08 SEC
 SORT2 READ    78271420. AND WROTE   352862895. INTEGRALS IN   1431 RECORDS. CPU TIME:     0.86 SEC, REAL TIME:     1.07 SEC

 Node minimum:   117612110.  Node maximum:   117629820. integrals

 OPERATOR DM      FOR CENTER  0  COORDINATES:    0.000000    0.000000    0.000000


 **********************************************************************************************************************************
 DATASETS  * FILE   NREC   LENGTH (MB)   RECORD NAMES
              1      18        4.62       500      610      700      900      950      970     1000      129      960     1100   
                                          VAR    BASINP    GEOM    SYMINP    ZMAT    AOBASIS   BASIS     P2S    ABASIS      S 
                                         1400     1410     1200     1210     1080     1600     1650     1700   
                                           T        V       H0       H01     AOSYM     SMH    MOLCAS    OPER   

 PROGRAMS   *        TOTAL       INT
 CPU TIMES  *         4.67      4.60
 REAL TIME  *         5.32 SEC
 DISK USED  *         1.33 GB      
 GA USED    *         0.00 MB       (max)       0.00 MB       (current)
 **********************************************************************************************************************************

1PROGRAM * RHF-SCF (CLOSED SHELL)       Authors: W. Meyer, H.-J. Werner


 NUMBER OF ELECTRONS:      16+   16-    SPACE SYMMETRY=1    SPIN SYMMETRY=Singlet 
 CONVERGENCE THRESHOLDS:    1.00E-05 (Density)    1.00E-07 (Energy)
 MAX. NUMBER OF ITERATIONS:       60
 INTERPOLATION TYPE:            DIIS
 INTERPOLATION STEPS:              2 (START)      1 (STEP)
 LEVEL SHIFTS:                  0.00 (CLOSED)  0.00 (OPEN) 



 Orbital guess generated from atomic densities. Full valence occupancy:   22

 Molecular orbital dump at record        2100.2

 ITERATION    DDIFF          GRAD             ENERGY        2-EL.EN.            DIPOLE MOMENTS         DIIS
    1      0.000D+00      0.000D+00      -263.66134866    350.127983    1.12568   -0.16409    0.31507    0
    2      0.000D+00      0.468D-02      -263.72654498    345.573616    0.64485   -0.09326    0.18690    1
    3      0.749D-02      0.317D-02      -263.76940723    348.124930    0.76562   -0.11110    0.21733    2
    4      0.307D-02      0.296D-03      -263.76989553    347.911382    0.76870   -0.11122    0.21859    3
    5      0.356D-03      0.858D-04      -263.76995193    347.915601    0.76360   -0.11080    0.21707    4
    6      0.132D-03      0.344D-04      -263.76995880    347.929323    0.76421   -0.11068    0.21730    5
    7      0.433D-04      0.849D-05      -263.76995950    347.921136    0.76379   -0.11073    0.21717    6
    8      0.141D-04      0.188D-05      -263.76995955    347.922404    0.76380   -0.11064    0.21717    7
    9      0.382D-05      0.714D-06      -263.76995955    347.922233    0.76377   -0.11072    0.21716    0

 Final occupancy:  16

 !RHF STATE 1.1 Energy               -263.769959551595
 Nuclear energy                        77.32169628
 One-electron energy                 -515.05277211
 Two-electron energy                  173.96111629
 Virial quotient                       -1.00173765
 !RHF STATE 1.1 Dipole moment           0.76376680    -0.11071586     0.21716235
 Dipole moment /Debye                   1.94117444    -0.28139321     0.55193549

 Orbital energies:

         1.1          2.1          3.1          4.1          5.1          6.1          7.1          8.1          9.1         10.1
    -20.651812   -20.651699   -20.567115   -11.459877    -1.531161    -1.478038    -1.352859    -0.799939    -0.742808    -0.718645

        11.1         12.1         13.1         14.1         15.1         16.1         17.1         18.1
     -0.714957    -0.714945    -0.583703    -0.543781    -0.543754    -0.510178     0.029394     0.047456


 **********************************************************************************************************************************
 DATASETS  * FILE   NREC   LENGTH (MB)   RECORD NAMES
              1      18        4.62       500      610      700      900      950      970     1000      129      960     1100   
                                          VAR    BASINP    GEOM    SYMINP    ZMAT    AOBASIS   BASIS     P2S    ABASIS      S 
                                         1400     1410     1200     1210     1080     1600     1650     1700   
                                           T        V       H0       H01     AOSYM     SMH    MOLCAS    OPER   

              2       3        1.44       700     1000     2100   
                                         GEOM     BASIS     RHF  

 PROGRAMS   *        TOTAL        HF       INT
 CPU TIMES  *        11.45      6.78      4.60
 REAL TIME  *        12.29 SEC
 DISK USED  *         1.36 GB      
 SF USED    *         0.21 MB      
 GA USED    *         0.00 MB       (max)       0.00 MB       (current)
 **********************************************************************************************************************************


1PROGRAM * CCSD (Closed-shell coupled cluster)     Authors: C. Hampel, H.-J. Werner, 1991, M. Deegan, P.J. Knowles, 1992

                                  CCSD-F12 implementation by  H.-J. Werner, 2007

                   Density fitting integral evaluation by F.R. Manby, 2003,2007, G. Knizia, 2010

 Basis set CC-PVTZ/JKFIT generated.      Number of basis functions:   376 
 Basis set AUG-CC-PVTZ/MP2FIT generated. Number of basis functions:   516 

 Convergence thresholds:  THRVAR = 1.00D-08  THRDEN = 1.00D-06

 CCSD(T)     terms to be evaluated (factor= 1.000)


 Number of core orbitals:           4 (   4 )
 Number of closed-shell orbitals:  12 (  12 )
 Number of external orbitals:     214 ( 214 )

 Molecular orbitals read from record     2100.2  Type=RHF/CANONICAL (state 1.1)

 MP2-F12 correlation treatment (H.-J. Werner, 2006)
 --------------------------------------------------

 Using MP2-F12 with ansatz 3C(FIX)

 Using projected zeroth-order Hamiltonian (+Z)

 FOCKRIB=T FOCKRIC=T FOCKRIP=T CABSP=T CABSA=T CABSK=T CABSF=T GBC=F EBC=F DMAT=T NOFIK=T NOPAO=1 SOLVE=-1  USEPAO=0
 EXCH_A= T EXCH_B= F EXCH_C= F EXCH_P= F
 
 Geminal basis:    OPTFULL  GEM_TYPE=SLATER  BETA=1.0  NGEM=6

 Optimizing Gaussian exponents for each gem_beta

 Geminal optimization for beta= 1.0000
 Weight function:   m=0, omega= 1.4646

 Augmented Hessian optimization of geminal fit. Trust ratio= 0.40000
 Convergence reached after   2 iterations. Final gradient= 8.24D-16, Step= 4.32D-06, Delta= 1.28D-09
 
 Alpha:                 0.19532     0.81920     2.85917     9.50073    35.69989   197.79328
 Coeff:                 0.27070     0.30552     0.18297     0.10986     0.06810     0.04224
 

 All pairs explicitly correlated. Number of r12-pairs:           78
 
 AO(A)-basis ORBITAL           loaded. Number of functions:     230
 RI(R)-basis CC-PVTZ/JKFIT     loaded. Number of functions:     376
 DF-basis CC-PVTZ/JKFIT        loaded. Number of functions:     376

 Screening thresholds:   THRAO=  1.00D-10  THRMO=  1.00D-09  THRPROD=  1.00D-09
                         THRSW=  1.00D-05  THROV=  1.00D-12  THRF12=   1.00D-08

 CPU time for Fock operators                      0.84 sec
 
 Construction of ABS:
 Smallest eigenvalue of S          2.57E-04  (threshold= 1.00E-08)
 Ratio eigmin/eigmax               1.83E-06  (threshold= 1.00E-09)
 Smallest eigenvalue of S kept     2.57E-04  (threshold= 2.57E-04, 0 functions deleted, 376 kept)
 
 Construction of CABS:
 Smallest eigenvalue of S          2.29E-08  (threshold= 1.00E-08)
 Ratio eigmin/eigmax               2.29E-08  (threshold= 1.00E-09)
 Smallest eigenvalue of S kept     2.29E-08  (threshold= 2.29E-08, 0 functions deleted, 376 kept)
 
 CPU time for CABS singles                        0.15 sec

 CABS-singles contribution of  -0.01596100 patched into reference energy.
 New reference energy        -263.78592056
 
 AO(A)-basis ORBITAL           loaded. Number of functions:     230
 RI(R)-basis CC-PVTZ/JKFIT     loaded. Number of functions:     376
 DF-basis AUG-CC-PVTZ/MP2FIT   loaded. Number of functions:     516

 Screening thresholds:   THRAO=  1.00D-10  THRMO=  1.00D-09  THRPROD=  1.00D-09
                         THRSW=  1.00D-05  THROV=  1.00D-12  THRF12=   1.00D-08

 CPU time for 3-index integral evaluation         1.54 sec
 CPU time for first  half transformation          0.14 sec (12579.2 MFLOP/sec)
 CPU time for second half transformation          0.01 sec ( 9080.6 MFLOP/sec)
 CPU time for sorting                             0.10 sec
 CPU time for fitting                             0.04 sec (34826.3 MFLOP/sec)
 CPU time for tilde quantities                    0.07 sec (26412.6 MFLOP/sec)
 CPU time for assembly                            0.79 sec (31061.3 MFLOP/sec)
 CPU time for tranop_f12                          0.87 sec (35134.9 MFLOP/sec)
 CPU time for f12 integrals (total)               5.55 sec
 F12-matrices built in  3 passes.
 F12-matrices built in  3 passes.
 F12-matrices built in  3 passes.
 F12-matrices built in  3 passes.
 FC-matrix built in  3 passes.
 CPU time for f12 matrices (total)                0.48 sec

 Diagonal F12 approximation with fixed coefficients:  TSING= 0.500,  TTRIP= 0.250 (scaled by -1/beta)

 DF-MP2-F12 energy corrections:
 ------------------------------
 Approx.                                    Singlet             Triplet             Total
 DF-MP2-F12/3*C(DX,FIX)                -0.097505170870     -0.016950861444     -0.114456032314
 DF-MP2-F12/3*C(FIX)                   -0.079905254898     -0.013407893344     -0.093313148241
 DF-MP2-F12/3C(FIX)                    -0.080263638185     -0.013430838806     -0.093694476991

 DF-MP2-F12 correlation energies:
 --------------------------------
 Approx.                                    Singlet             Triplet             Ecorr            Total Energy
 DF-MP2                                -0.537337888191     -0.342773726638     -0.880111614829   -264.666032170623
 DF-MP2-F12/3*C(DX,FIX)                -0.634843059061     -0.359724588082     -0.994567647143   -264.780488202937
 DF-MP2-F12/3*C(FIX)                   -0.617243143089     -0.356181619981     -0.973424763070   -264.759345318864
 DF-MP2-F12/3C(FIX)                    -0.617601526376     -0.356204565444     -0.973806091820   -264.759726647614

 SCS-DF-MP2 energies (F_SING= 1.20000  F_TRIP= 0.62222  F_PARALLEL= 0.33333):
 ----------------------------------------------------------------------------
 SCS-DF-MP2                            -0.858086895737   -264.644007451531
 SCS-DF-MP2-F12/3*C(DX,FIX)            -0.985640303458   -264.771560859252
 SCS-DF-MP2-F12/3*C(FIX)               -0.962315890806   -264.748236446600
 SCS-DF-MP2-F12/3C(FIX)                -0.962760227927   -264.748680783722
 Symmetry transformation completed.

 Number of N-1 electron functions:              12
 Number of N-2 electron functions:              78
 Number of singly external CSFs:              2568
 Number of doubly external CSFs:           3298596
 Total number of CSFs:                     3301165

 Pair and operator lists are different

 Length of J-op  integral file:             474.22 MB
 Length of K-op  integral file:             572.29 MB
 Length of 3-ext integral record:             0.00 MB

 For full I/O caching in triples, increase memory by 50.81 Mwords to 151.09 Mwords.

 Integral transformation finished. Total CPU:  11.07 sec, npass=  1  Memory used:  87.46 MW

 Reference energy:                   -263.78592056

 Adding F12 terms to K(Cij), methodcc=6,  factor=1.0

 ITER.      SQ.NORM     CORR.ENERGY   TOTAL ENERGY   ENERGY CHANGE        DEN1      VAR(S)    VAR(P)  DIIS     TIME
   1      1.20176084    -0.86219897  -264.64811953     0.01792905     0.04638146  0.71D-02  0.55D-02  1  1    25.02
   2      1.21598562    -0.85801490  -264.64393546     0.00418407    -0.02004563  0.85D-04  0.58D-03  2  2    31.56
   3      1.22129629    -0.85810901  -264.64402957    -0.00009411    -0.00235185  0.13D-03  0.32D-04  3  3    38.39
   4      1.22406656    -0.85798394  -264.64390449     0.00012508    -0.00140054  0.74D-05  0.40D-05  4  4    45.32
   5      1.22508006    -0.85794694  -264.64386750     0.00003699    -0.00036149  0.54D-06  0.28D-06  5  5    52.28
   6      1.22523956    -0.85792049  -264.64384105     0.00002645    -0.00000787  0.39D-07  0.23D-07  6  6    59.27
   7      1.22526837    -0.85791812  -264.64383867     0.00000238    -0.00000613  0.25D-08  0.39D-08  6  4    66.22
   8      1.22526865    -0.85791763  -264.64383819     0.00000048     0.00000192  0.38D-09  0.26D-09  6  1    73.12
   9      1.22526926    -0.85791770  -264.64383826    -0.00000007     0.00000055  0.25D-10  0.21D-10  6  2    79.95

 Norm of t1 vector:      0.10538139      S-energy:    -0.00000000      T1 diagnostic:  0.01521049
                                                                       D1 diagnostic:  0.04464251

 Adding energy correction from Wij-K(Fij), methodcc=6  factor=1.0
 
  CCSD correlation energy              -0.857917701200
  MP2-F12 correction (uncoupled)       -0.092542815509
  C*T doubles correction               -0.001473683089
  f12b correction                       0.015403116793


 Total CPU time for triples:    210.90 sec


 RESULTS
 =======

  Reference energy                   -263.769959551595
  F12 singles correction               -0.015961004199

 F12 singles corrections added to reference energy

  New reference energy               -263.785920555794

  F12a singlet correction              -0.080466345766
  F12a triplet correction              -0.013550152831
  F12a total correction                -0.094016498597

 F12a corrections for ansatz F12/3C(FIX) added to CCSD energy
 
  CCSD-F12a singlet pair energy        -0.641548291812
  CCSD-F12a triplet pair energy        -0.310385907252
  CCSD-F12a correlation energy         -0.951934199798

  Triples (T) contribution             -0.037509652425
  Total correlation energy             -0.989443852223

  CCSD-F12a total energy             -264.737854755592
  CCSD[T]-F12a energy                -264.777881246303
  CCSD-T-F12a energy                 -264.774434668190
 !CCSD(T)-F12a total energy          -264.775364408017

 F12b corrections for ansatz F12/3C(FIX) added to CCSD(T)-F12a energy

  CCSD-F12b singlet pair energy        -0.627369069300
  CCSD-F12b triplet pair energy        -0.309162012972
  CCSD-F12b correlation energy         -0.936531083005

  Triples (T) contribution             -0.037509652425
  Total correlation energy             -0.974040735430

  CCSD-F12b total energy             -264.722451638799
  CCSD[T]-F12b energy                -264.762478129511
  CCSD-T-F12b energy                 -264.759031551398
 !CCSD(T)-F12b total energy          -264.759961291224

 Timing summary (sec):

 STEP                 CPU(USER)    SYS     CPU(TOT)    WALL
 Transformation         11.17      1.01     12.18     12.18
 CCSD iterations        61.23      3.47     64.70     65.51
 Triples               210.90      2.56    213.46    213.38
 MP2-F12                 7.57      1.18      8.75      8.75
 F12b energy             4.04      0.04      4.08      4.07

 Program statistics:

 Available memory in ccsd:                99998934
 Min. memory needed in ccsd:               8644845
 Max. memory used in ccsd:                11598633
 Max. memory used in cckext:               8768967 (10 integral passes)



 **********************************************************************************************************************************
 DATASETS  * FILE   NREC   LENGTH (MB)   RECORD NAMES
              1      20      527.84       500      610      700      900      950      970     1000      129      960     1100   
                                          VAR    BASINP    GEOM    SYMINP    ZMAT    AOBASIS   BASIS     P2S    ABASIS      S 
                                         1400     1410     1200     1210     1080     1600     1650     1700      960(1)  1380   
                                           T        V       H0       H01     AOSYM     SMH    MOLCAS    OPER    ABASIS    JKOP   

              2       5        2.50       700     1000     2100     7360     7350   
                                         GEOM     BASIS     RHF    F12ABS    EF12   

 PROGRAMS   *        TOTAL   CCSD(T)        HF       INT
 CPU TIMES  *       306.46    295.01      6.78      4.60
 REAL TIME  *       316.53 SEC
 DISK USED  *         2.22 GB      
 SF USED    *         1.91 GB      
 GA USED    *         2.40 MB       (max)       0.00 MB       (current)
 **********************************************************************************************************************************

     CCSD(T)-F12        HF-SCF  
   -264.75996129   -263.76995955
 **********************************************************************************************************************************
 Variable memory released
