
 Primary working directories    : /scratch/kee
 Secondary working directories  : /scratch/kee
 Wavefunction directory         : /home/kee/wfu/
 Main file repository           : /scratch/kee/

 ARCHNAME  : Linux/x86_64
 FC        : /opt/intel/composer_xe_2015.0.090/bin/intel64/ifort
 FCVERSION : 15.0.0
 BLASLIB   : -L/opt/intel/mkl/lib/intel64 -lmkl_intel_ilp64 -lmkl_sequential -lmkl_core
 id        : emory

 Nodes     nprocs
 node21       3
 Number of processes for MPI-2 version of Molpro:   nprocs(total)=    4   nprocs(compute)=    3   nprocs(helper)=    1
 ga_uses_ma=false, calling ma_init with nominal heap.
 GA-space will be limited to   8.0 MW (determined by -G option)

 Using customized tuning parameters: mindgm=7; mindgv=32; mindgc=1; mindgr=1; noblas=0; mincuda=1000; minvec=7
 default implementation of scratch files=sf  

 ***,co2h2o
 memory,100,m
 basis avtz
 geomtype = xyz
 geometry = {
 6
       0.00000000
 O     0.02747900    1.16001200    0.00000000
 O    -0.00936500   -1.16396300    0.00000000
 O    16.52523679   -0.06842105    0.00000000
 H    16.91433179    0.37285295    0.75746400
 H    16.91433179    0.37285295   -0.75746400
 C     0.02536600   -0.00312200    0.00000000
 }
 hf
 ccsd(t)-f12
 ---

 Variables initialized (665), CPU time= 0.01 sec
 Commands  initialized (462), CPU time= 0.00 sec, 486 directives.
 Default parameters read. Elapsed time= 0.03 sec

 Checking input...
 Passed
1


                                         ***  PROGRAM SYSTEM MOLPRO  ***
                         Copyright, University College Cardiff Consultants Limited, 2008

                                    Version 2010.1 linked 9 Dec 2014 15:06:28 


 **********************************************************************************************************************************
 LABEL *   co2h2o                                                                        
 Linux-2.6.32-504.el6.x86_64/node21(x86_64) 64 bit mpp version                           DATE: 14-Dec-16          TIME: 23:45:33  
 **********************************************************************************************************************************

 Patch level:      19
 **********************************************************************************************************************************

 Variable memory set to  100000000 words,  buffer space   230000 words

 SETTING BASIS          =    AVTZ
 SETTING GEOMTYPE       =    XYZ

Geometry recognized as XYZ



 Recomputing integrals since basis changed


 Using spherical harmonics

 Library entry O      S aug-cc-pVTZ          selected for orbital group  1
 Library entry O      P aug-cc-pVTZ          selected for orbital group  1
 Library entry O      D aug-cc-pVTZ          selected for orbital group  1
 Library entry O      F aug-cc-pVTZ          selected for orbital group  1
 Library entry H      S aug-cc-pVTZ          selected for orbital group  2
 Library entry H      P aug-cc-pVTZ          selected for orbital group  2
 Library entry H      D aug-cc-pVTZ          selected for orbital group  2
 Library entry C      S aug-cc-pVTZ          selected for orbital group  3
 Library entry C      P aug-cc-pVTZ          selected for orbital group  3
 Library entry C      D aug-cc-pVTZ          selected for orbital group  3
 Library entry C      F aug-cc-pVTZ          selected for orbital group  3

1PROGRAM * SEWARD (Integral evaluation for generally contracted gaussian basis sets)     Author: Roland Lindh, 1990

 Geometry written to block  1 of record 700


 Point group  Cs  



 ATOMIC COORDINATES

 NR  ATOM    CHARGE       X              Y              Z

   1  O       8.00    0.051927784    2.192104989    0.000000000
   2  O       8.00   -0.017697285   -2.199571297    0.000000000
   3  O       8.00   31.228171790   -0.129297046    0.000000000
   4  H       1.00   31.963454779    0.704589963    1.431399514
   5  H       1.00   31.963454779    0.704589963   -1.431399514
   6  C       6.00    0.047934793   -0.005899725    0.000000000

 Bond lengths in Bohr (Angstrom)

 1-6  2.198008341  2-6  2.194653170  3-4  1.812432947  3-5  1.812432947
     (1.163135919)     (1.161360439)     (0.959098208)     (0.959098208)

 Bond angles

  1-6-2  178.39037465   4-3-5  104.32746287

 NUCLEAR CHARGE:                   32
 NUMBER OF PRIMITIVE AOS:         322
 NUMBER OF SYMMETRY AOS:          282
 NUMBER OF CONTRACTIONS:          230   ( 143A'  +  87A"  )
 NUMBER OF CORE ORBITALS:           4   (   4A'  +   0A"  )
 NUMBER OF VALENCE ORBITALS:       18   (  13A'  +   5A"  )


 NUCLEAR REPULSION ENERGY   74.46170724


 Eigenvalues of metric

         1 0.349E-03 0.386E-03 0.420E-03 0.903E-03 0.922E-03 0.175E-02 0.186E-02 0.317E-02
         2 0.395E-03 0.167E-02 0.318E-02 0.348E-02 0.509E-02 0.622E-02 0.100E-01 0.125E-01


 Contracted 2-electron integrals neglected if value below      1.0D-11
 AO integral compression algorithm  1   Integral accuracy      1.0D-11

     231.211 MB (compressed) written to integral file ( 41.2%)

     Node minimum: 66.847 MB, node maximum: 89.915 MB


 NUMBER OF SORTED TWO-ELECTRON INTEGRALS:   59530350.     BUFFER LENGTH:  32768
 NUMBER OF SEGMENTS:   4  SEGMENT LENGTH:   15999984      RECORD LENGTH: 524288

 Memory used in sort:      16.56 MW

 SORT1 READ    70191152. AND WROTE    15591551. INTEGRALS IN     46 RECORDS. CPU TIME:     0.86 SEC, REAL TIME:     1.02 SEC
 SORT2 READ    46595359. AND WROTE   178576926. INTEGRALS IN    765 RECORDS. CPU TIME:     0.84 SEC, REAL TIME:     0.99 SEC

 Node minimum:    59520934.  Node maximum:    59530350. integrals

 OPERATOR DM      FOR CENTER  0  COORDINATES:    0.000000    0.000000    0.000000


 **********************************************************************************************************************************
 DATASETS  * FILE   NREC   LENGTH (MB)   RECORD NAMES
              1      18        3.71       500      610      700      900      950      970     1000      129      960     1100   
                                          VAR    BASINP    GEOM    SYMINP    ZMAT    AOBASIS   BASIS     P2S    ABASIS      S 
                                         1400     1410     1200     1210     1080     1600     1650     1700   
                                           T        V       H0       H01     AOSYM     SMH    MOLCAS    OPER   

 PROGRAMS   *        TOTAL       INT
 CPU TIMES  *         3.16      3.10
 REAL TIME  *         3.57 SEC
 DISK USED  *       797.05 MB      
 GA USED    *         0.00 MB       (max)       0.00 MB       (current)
 **********************************************************************************************************************************

1PROGRAM * RHF-SCF (CLOSED SHELL)       Authors: W. Meyer, H.-J. Werner


 NUMBER OF ELECTRONS:      16+   16-
 CONVERGENCE THRESHOLDS:    1.00E-05 (Density)    1.00E-07 (Energy)
 MAX. NUMBER OF ITERATIONS:       60
 INTERPOLATION TYPE:            DIIS
 INTERPOLATION STEPS:              2 (START)      1 (STEP)
 LEVEL SHIFTS:                  0.00 (CLOSED)  0.00 (OPEN) 



 Orbital guess generated from atomic densities. Full valence occupancy:   17   5

 Molecular orbital dump at record        2100.2

 Initial alpha occupancy:  13   3
 Initial beta  occupancy:  13   3
 Wave function symmetry:    1

 ITERATION    DDIFF          GRAD             ENERGY        2-EL.EN.            DIPOLE MOMENTS         DIIS
    1      0.000D+00      0.000D+00      -263.66003703    344.366297    0.79962    0.84407    0.00000    0
    2      0.000D+00      0.643D-02      -263.72538778    339.830551    0.45330    0.50028    0.00000    1
    3      0.103D-01      0.437D-02      -263.76882779    342.387116    0.54132    0.58056    0.00000    2
    4      0.424D-02      0.410D-03      -263.76932321    342.173252    0.54340    0.58484    0.00000    3
    5      0.493D-03      0.119D-03      -263.76938129    342.176715    0.53973    0.58008    0.00000    4
    6      0.185D-03      0.482D-04      -263.76938847    342.190920    0.54016    0.58103    0.00000    5
    7      0.614D-04      0.119D-04      -263.76938920    342.182648    0.53986    0.58051    0.00000    6
    8      0.201D-04      0.264D-05      -263.76938925    342.183921    0.53987    0.58064    0.00000    7
    9      0.548D-05      0.105D-05      -263.76938926    342.183761    0.53985    0.58050    0.00000    0

 Final occupancy:  13   3

 !RHF STATE 1.1 Energy               -263.769389256003
 Nuclear energy                        74.46170724
 One-electron energy                 -509.32297713
 Two-electron energy                  171.09188063
 Virial quotient                       -1.00183196
 !RHF STATE 1.1 Dipole moment           0.53984700     0.58049556     0.00000000
 Dipole moment /Debye                   1.37206434     1.47537591     0.00000000

 Orbital energies:

         1.1          2.1          3.1          4.1          5.1          6.1          7.1          8.1          9.1         10.1
    -20.653206   -20.652645   -20.567691   -11.461722    -1.530552    -1.477439    -1.352862    -0.800802    -0.743023    -0.714606

        11.1         12.1         13.1         14.1         15.1
     -0.585044    -0.544243    -0.510347     0.029331     0.047848

         1.2          2.2          3.2          4.2          5.2
     -0.716551    -0.714614    -0.544262     0.047614     0.073400


 **********************************************************************************************************************************
 DATASETS  * FILE   NREC   LENGTH (MB)   RECORD NAMES
              1      18        3.72       500      610      700      900      950      970     1000      129      960     1100   
                                          VAR    BASINP    GEOM    SYMINP    ZMAT    AOBASIS   BASIS     P2S    ABASIS      S 
                                         1400     1410     1200     1210     1080     1600     1650     1700   
                                           T        V       H0       H01     AOSYM     SMH    MOLCAS    OPER   

              2       3        0.94       700     1000     2100   
                                         GEOM     BASIS     RHF  

 PROGRAMS   *        TOTAL        HF       INT
 CPU TIMES  *         5.73      2.57      3.10
 REAL TIME  *         6.26 SEC
 DISK USED  *       820.87 MB      
 SF USED    *         0.11 MB      
 GA USED    *         0.00 MB       (max)       0.00 MB       (current)
 **********************************************************************************************************************************


1PROGRAM * CCSD (Closed-shell coupled cluster)     Authors: C. Hampel, H.-J. Werner, 1991, M. Deegan, P.J. Knowles, 1992

                                  CCSD-F12 implementation by  H.-J. Werner, 2007

                   Density fitting integral evaluation by F.R. Manby, 2003,2007, G. Knizia, 2010

 Basis set CC-PVTZ/JKFIT generated.      Number of basis functions:   376 
 Basis set AUG-CC-PVTZ/MP2FIT generated. Number of basis functions:   516 

 Convergence thresholds:  THRVAR = 1.00D-08  THRDEN = 1.00D-06

 CCSD(T)     terms to be evaluated (factor= 1.000)


 Number of core orbitals:           4 (   4   0 )
 Number of closed-shell orbitals:  12 (   9   3 )
 Number of external orbitals:     214 ( 130  84 )

 Molecular orbitals read from record     2100.2  Type=RHF/CANONICAL (state 1.1)

 MP2-F12 correlation treatment (H.-J. Werner, 2006)
 --------------------------------------------------

 Using MP2-F12 with ansatz 3C(FIX)

 Using projected zeroth-order Hamiltonian (+Z)

 FOCKRIB=T FOCKRIC=T FOCKRIP=T CABSP=T CABSA=T CABSK=T CABSF=T GBC=F EBC=F DMAT=T NOFIK=T NOPAO=1 SOLVE=-1  USEPAO=0
 EXCH_A= T EXCH_B= F EXCH_C= F EXCH_P= F
 
 Geminal basis:    OPTFULL  GEM_TYPE=SLATER  BETA=1.0  NGEM=6

 Optimizing Gaussian exponents for each gem_beta

 Geminal optimization for beta= 1.0000
 Weight function:   m=0, omega= 1.4646

 Augmented Hessian optimization of geminal fit. Trust ratio= 0.40000
 Convergence reached after   2 iterations. Final gradient= 8.24D-16, Step= 4.32D-06, Delta= 1.28D-09
 
 Alpha:                 0.19532     0.81920     2.85917     9.50073    35.69989   197.79328
 Coeff:                 0.27070     0.30552     0.18297     0.10986     0.06810     0.04224
 

 Symmetry turned off. Reference energy:       -263.769389256004

 All pairs explicitly correlated. Number of r12-pairs:           78
 
 AO(A)-basis ORBITAL           loaded. Number of functions:     230
 RI(R)-basis CC-PVTZ/JKFIT     loaded. Number of functions:     376
 DF-basis CC-PVTZ/JKFIT        loaded. Number of functions:     376

 Screening thresholds:   THRAO=  1.00D-10  THRMO=  1.00D-09  THRPROD=  1.00D-09
                         THRSW=  1.00D-05  THROV=  1.00D-12  THRF12=   1.00D-08

 CPU time for Fock operators                      0.80 sec
 
 Construction of ABS:
 Smallest eigenvalue of S          2.57E-04  (threshold= 1.00E-08)
 Ratio eigmin/eigmax               1.83E-06  (threshold= 1.00E-09)
 Smallest eigenvalue of S kept     2.57E-04  (threshold= 2.57E-04, 0 functions deleted, 376 kept)
 
 Construction of CABS:
 Smallest eigenvalue of S          2.30E-08  (threshold= 1.00E-08)
 Ratio eigmin/eigmax               2.30E-08  (threshold= 1.00E-09)
 Smallest eigenvalue of S kept     2.30E-08  (threshold= 2.30E-08, 0 functions deleted, 376 kept)
 
 CPU time for CABS singles                        0.16 sec

 CABS-singles contribution of  -0.01592228 patched into reference energy.
 New reference energy        -263.78531153
 
 AO(A)-basis ORBITAL           loaded. Number of functions:     230
 RI(R)-basis CC-PVTZ/JKFIT     loaded. Number of functions:     376
 DF-basis AUG-CC-PVTZ/MP2FIT   loaded. Number of functions:     516

 Screening thresholds:   THRAO=  1.00D-10  THRMO=  1.00D-09  THRPROD=  1.00D-09
                         THRSW=  1.00D-05  THROV=  1.00D-12  THRF12=   1.00D-08

 CPU time for 3-index integral evaluation         1.30 sec
 CPU time for first  half transformation          0.16 sec ( 5730.1 MFLOP/sec)
 CPU time for sorting                             0.06 sec
 CPU time for fitting                             0.05 sec (27861.0 MFLOP/sec)
 CPU time for tilde quantities                    0.05 sec (36977.6 MFLOP/sec)
 CPU time for assembly                            0.72 sec (33081.6 MFLOP/sec)
 CPU time for tranop_f12                          0.84 sec (36075.2 MFLOP/sec)
 CPU time for f12 integrals (total)               5.12 sec
 F12-matrices built in  3 passes.
 F12-matrices built in  3 passes.
 F12-matrices built in  3 passes.
 F12-matrices built in  3 passes.
 FC-matrix built in  3 passes.
 CPU time for f12 matrices (total)                0.48 sec

 Diagonal F12 approximation with fixed coefficients:  TSING= 0.500,  TTRIP= 0.250 (scaled by -1/beta)

 DF-MP2-F12 energy corrections:
 ------------------------------
 Approx.                                    Singlet             Triplet             Total
 DF-MP2-F12/3*C(DX,FIX)                -0.097445594490     -0.016932794303     -0.114378388792
 DF-MP2-F12/3*C(FIX)                   -0.079860779946     -0.013395143029     -0.093255922975
 DF-MP2-F12/3C(FIX)                    -0.080222258705     -0.013418597426     -0.093640856131

 DF-MP2-F12 correlation energies:
 --------------------------------
 Approx.                                    Singlet             Triplet             Ecorr            Total Energy
 DF-MP2                                -0.537790110933     -0.343111169938     -0.880901280871   -264.666212813357
 DF-MP2-F12/3*C(DX,FIX)                -0.635235705422     -0.360043964241     -0.995279669663   -264.780591202149
 DF-MP2-F12/3*C(FIX)                   -0.617650890878     -0.356506312967     -0.974157203846   -264.759468736331
 DF-MP2-F12/3C(FIX)                    -0.618012369638     -0.356529767364     -0.974542137002   -264.759853669487

 SCS-DF-MP2 energies (F_SING= 1.20000  F_TRIP= 0.62222  F_PARALLEL= 0.33333):
 ----------------------------------------------------------------------------
 SCS-DF-MP2                            -0.858839527747   -264.644151060233
 SCS-DF-MP2-F12/3*C(DX,FIX)            -0.986310202034   -264.771621734520
 SCS-DF-MP2-F12/3*C(FIX)               -0.963007219345   -264.748318751831
 SCS-DF-MP2-F12/3C(FIX)                -0.963455587703   -264.748767120189

 Symmetry restored.
 Symmetry transformation completed.

 Number of N-1 electron functions:              12
 Number of N-2 electron functions:              78
 Number of singly external CSFs:              1422
 Number of doubly external CSFs:           1668984
 Total number of CSFs:                     1670407

 Pair and operator lists are different

 Length of J-op  integral file:             466.33 MB
 Length of K-op  integral file:             525.76 MB
 Length of 3-ext integral record:             0.00 MB

 Memory could be reduced to 76.19 Mwords without degradation in triples

 Integral transformation finished. Total CPU:   4.10 sec, npass=  1  Memory used:  26.50 MW

 Reference energy:                   -263.78531153

 Adding F12 terms to K(Cij), methodcc=6,  factor=1.0

 ITER.      SQ.NORM     CORR.ENERGY   TOTAL ENERGY   ENERGY CHANGE        DEN1      VAR(S)    VAR(P)  DIIS     TIME
   1      1.20220612    -0.86283909  -264.64815063     0.01807860     0.04672822  0.72D-02  0.56D-02  1  1    13.44
   2      1.21652826    -0.85860947  -264.64392100     0.00422963    -0.02016359  0.86D-04  0.59D-03  2  2    15.88
   3      1.22189423    -0.85870579  -264.64401732    -0.00009632    -0.00236638  0.13D-03  0.32D-04  3  3    18.34
   4      1.22469859    -0.85857781  -264.64388934     0.00012798    -0.00141238  0.76D-05  0.41D-05  4  4    20.83
   5      1.22572944    -0.85854011  -264.64385165     0.00003769    -0.00036668  0.56D-06  0.29D-06  5  5    23.36
   6      1.22589170    -0.85851325  -264.64382478     0.00002686    -0.00000806  0.40D-07  0.24D-07  6  6    25.88
   7      1.22592109    -0.85851082  -264.64382235     0.00000243    -0.00000622  0.26D-08  0.40D-08  6  4    28.42
   8      1.22592140    -0.85851033  -264.64382186     0.00000049     0.00000194  0.39D-09  0.27D-09  6  1    30.99
   9      1.22592201    -0.85851040  -264.64382193    -0.00000007     0.00000056  0.26D-10  0.21D-10  6  2    33.51

 Norm of t1 vector:      0.10599823      S-energy:     0.00000001      T1 diagnostic:  0.01529953
                                                                       D1 diagnostic:  0.04494953

 Adding energy correction from Wij-K(Fij), methodcc=6  factor=1.0
 
  CCSD correlation energy              -0.858510396022
  MP2-F12 correction (uncoupled)       -0.092482558904
  C*T doubles correction               -0.001476395182
  f12b correction                       0.015406947639


 Total CPU time for triples:     75.16 sec


 RESULTS
 =======

  Reference energy                   -263.769389256003
  F12 singles correction               -0.015922276482

 F12 singles corrections added to reference energy

  New reference energy               -263.785311532485

  F12a singlet correction              -0.080421924425
  F12a triplet correction              -0.013537029661
  F12a total correction                -0.093958954086

 F12a corrections for ansatz F12/3C(FIX) added to CCSD energy
 
  CCSD-F12a singlet pair energy        -0.641955143557
  CCSD-F12a triplet pair energy        -0.310514221163
  CCSD-F12a correlation energy         -0.952469350108

  Triples (T) contribution             -0.037651133688
  Total correlation energy             -0.990120483796

  CCSD-F12a total energy             -264.737780882593
  CCSD[T]-F12a energy                -264.777977456071
  CCSD-T-F12a energy                 -264.774493659871
 !CCSD(T)-F12a total energy          -264.775432016282

 F12b corrections for ansatz F12/3C(FIX) added to CCSD(T)-F12a energy

  CCSD-F12b singlet pair energy        -0.627771410114
  CCSD-F12b triplet pair energy        -0.309291006967
  CCSD-F12b correlation energy         -0.937062402469

  Triples (T) contribution             -0.037651133688
  Total correlation energy             -0.974713536158

  CCSD-F12b total energy             -264.722373934955
  CCSD[T]-F12b energy                -264.762570508432
  CCSD-T-F12b energy                 -264.759086712232
 !CCSD(T)-F12b total energy          -264.760025068643

 Timing summary (sec):

 STEP                 CPU(USER)    SYS     CPU(TOT)    WALL
 Transformation          4.13      0.51      4.64      4.63
 CCSD iterations        22.47      1.27     23.74     23.84
 Triples                75.16      1.56     76.72     76.69
 MP2-F12                 6.92      1.00      7.92      7.92
 F12b energy             1.62      0.02      1.64      1.63

 Program statistics:

 Available memory in ccsd:                99998934
 Min. memory needed in ccsd:               4419579
 Max. memory used in ccsd:                 5922321
 Max. memory used in cckext:               6231049 (10 integral passes)



 **********************************************************************************************************************************
 DATASETS  * FILE   NREC   LENGTH (MB)   RECORD NAMES
              1      20      268.24       500      610      700      900      950      970     1000      129      960     1100   
                                          VAR    BASINP    GEOM    SYMINP    ZMAT    AOBASIS   BASIS     P2S    ABASIS      S 
                                         1400     1410     1200     1210     1080     1600     1650     1700      960(1)  1380   
                                           T        V       H0       H01     AOSYM     SMH    MOLCAS    OPER    ABASIS    JKOP   

              2       5        1.51       700     1000     2100     7360     7350   
                                         GEOM     BASIS     RHF    F12ABS    EF12   

 PROGRAMS   *        TOTAL   CCSD(T)        HF       INT
 CPU TIMES  *       116.23    110.50      2.57      3.10
 REAL TIME  *       121.23 SEC
 DISK USED  *         1.26 GB      
 SF USED    *         1.52 GB      
 GA USED    *         2.40 MB       (max)       0.00 MB       (current)
 **********************************************************************************************************************************

     CCSD(T)-F12        HF-SCF  
   -264.76002507   -263.76938926
 **********************************************************************************************************************************
 Variable memory released
