
 Primary working directories    : /scratch/kee
 Secondary working directories  : /scratch/kee
 Wavefunction directory         : /home/kee/wfu/
 Main file repository           : /scratch/kee/

 ARCHNAME  : Linux/x86_64
 FC        : /opt/intel/composer_xe_2015.0.090/bin/intel64/ifort
 FCVERSION : 15.0.0
 BLASLIB   : -L/opt/intel/mkl/lib/intel64 -lmkl_intel_ilp64 -lmkl_sequential -lmkl_core
 id        : emory

 Nodes     nprocs
 node19       3
 Number of processes for MPI-2 version of Molpro:   nprocs(total)=    4   nprocs(compute)=    3   nprocs(helper)=    1
 ga_uses_ma=false, calling ma_init with nominal heap.
 GA-space will be limited to   8.0 MW (determined by -G option)

 Using customized tuning parameters: mindgm=7; mindgv=32; mindgc=1; mindgr=1; noblas=0; mincuda=1000; minvec=7
 default implementation of scratch files=sf  

 ***,co2h2o
 memory,100,m
 basis avtz
 geomtype = xyz
 geometry = {
 3
       0.00000000
 O    19.06968000    0.00000000    0.00000000
 H    19.65589800    0.00000000    0.75853100
 H    19.65589800    0.00000000   -0.75853100
 }
 hf
 ccsd(t)-f12
 ---

 Variables initialized (665), CPU time= 0.01 sec
 Commands  initialized (462), CPU time= 0.01 sec, 486 directives.
 Default parameters read. Elapsed time= 0.03 sec

 Checking input...
 Passed
1


                                         ***  PROGRAM SYSTEM MOLPRO  ***
                         Copyright, University College Cardiff Consultants Limited, 2008

                                    Version 2010.1 linked 9 Dec 2014 15:06:28 


 **********************************************************************************************************************************
 LABEL *   co2h2o                                                                        
 Linux-2.6.32-504.el6.x86_64/node19(x86_64) 64 bit mpp version                           DATE: 12-Dec-16          TIME: 14:13:31  
 **********************************************************************************************************************************

 Patch level:      19
 **********************************************************************************************************************************

 Variable memory set to  100000000 words,  buffer space   230000 words

 SETTING BASIS          =    AVTZ
 SETTING GEOMTYPE       =    XYZ

Geometry recognized as XYZ



 Recomputing integrals since basis changed


 Using spherical harmonics

 Library entry O      S aug-cc-pVTZ          selected for orbital group  1
 Library entry O      P aug-cc-pVTZ          selected for orbital group  1
 Library entry O      D aug-cc-pVTZ          selected for orbital group  1
 Library entry O      F aug-cc-pVTZ          selected for orbital group  1
 Library entry H      S aug-cc-pVTZ          selected for orbital group  2
 Library entry H      P aug-cc-pVTZ          selected for orbital group  2
 Library entry H      D aug-cc-pVTZ          selected for orbital group  2

1PROGRAM * SEWARD (Integral evaluation for generally contracted gaussian basis sets)     Author: Roland Lindh, 1990

 Geometry written to block  1 of record 700


 Point group  C2v 



 ATOMIC COORDINATES

 NR  ATOM    CHARGE       X              Y              Z

   1  O       8.00   36.036472614    0.000000000    0.000000000
   2  H       1.00   37.144264087    0.000000000    1.433415852
   3  H       1.00   37.144264087    0.000000000   -1.433415852

 Bond lengths in Bohr (Angstrom)

 1-2  1.811596797  1-3  1.811596797
     (0.958655737)     (0.958655737)

 Bond angles

  2-1-3  104.60391356

 NUCLEAR CHARGE:                   10
 NUMBER OF PRIMITIVE AOS:         121
 NUMBER OF SYMMETRY AOS:          108
 NUMBER OF CONTRACTIONS:           92   (  35A1  +  18B1  +  27B2  +  12A2  )
 NUMBER OF CORE ORBITALS:           1   (   1A1  +   0B1  +   0B2  +   0A2  )
 NUMBER OF VALENCE ORBITALS:        6   (   3A1  +   1B1  +   2B2  +   0A2  )


 NUCLEAR REPULSION ENERGY    9.18080448


 Eigenvalues of metric

         1 0.385E-03 0.186E-02 0.321E-02 0.557E-02 0.761E-02 0.170E-01 0.392E-01 0.621E-01
         2 0.596E-02 0.365E-01 0.643E-01 0.128E+00 0.172E+00 0.228E+00 0.360E+00 0.386E+00
         3 0.394E-03 0.167E-02 0.509E-02 0.622E-02 0.100E-01 0.156E-01 0.391E-01 0.648E-01
         4 0.124E-01 0.679E-01 0.110E+00 0.211E+00 0.283E+00 0.407E+00 0.643E+00 0.778E+00


 Contracted 2-electron integrals neglected if value below      1.0D-11
 AO integral compression algorithm  1   Integral accuracy      1.0D-11

     16.515 MB (compressed) written to integral file ( 57.3%)

     Node minimum: 4.981 MB, node maximum: 6.029 MB


 NUMBER OF SORTED TWO-ELECTRON INTEGRALS:     803070.     BUFFER LENGTH:  32768
 NUMBER OF SEGMENTS:   1  SEGMENT LENGTH:     803070      RECORD LENGTH: 524288

 Memory used in sort:       1.36 MW

 SORT1 READ     3672886. AND WROTE      739442. INTEGRALS IN      3 RECORDS. CPU TIME:     0.07 SEC, REAL TIME:     0.09 SEC
 SORT2 READ     2227564. AND WROTE     2407953. INTEGRALS IN     63 RECORDS. CPU TIME:     0.02 SEC, REAL TIME:     0.04 SEC

 Node minimum:      802232.  Node maximum:      803070. integrals

 OPERATOR DM      FOR CENTER  0  COORDINATES:    0.000000    0.000000    0.000000


 **********************************************************************************************************************************
 DATASETS  * FILE   NREC   LENGTH (MB)   RECORD NAMES
              1      18        2.69       500      610      700      900      950      970     1000      129      960     1100   
                                          VAR    BASINP    GEOM    SYMINP    ZMAT    AOBASIS   BASIS     P2S    ABASIS      S 
                                         1400     1410     1200     1210     1080     1600     1650     1700   
                                           T        V       H0       H01     AOSYM     SMH    MOLCAS    OPER   

 PROGRAMS   *        TOTAL       INT
 CPU TIMES  *         0.30      0.23
 REAL TIME  *         0.36 SEC
 DISK USED  *        48.88 MB      
 GA USED    *         0.00 MB       (max)       0.00 MB       (current)
 **********************************************************************************************************************************

1PROGRAM * RHF-SCF (CLOSED SHELL)       Authors: W. Meyer, H.-J. Werner


 NUMBER OF ELECTRONS:       5+    5-
 CONVERGENCE THRESHOLDS:    1.00E-05 (Density)    1.00E-07 (Energy)
 MAX. NUMBER OF ITERATIONS:       60
 INTERPOLATION TYPE:            DIIS
 INTERPOLATION STEPS:              2 (START)      1 (STEP)
 LEVEL SHIFTS:                  0.00 (CLOSED)  0.00 (OPEN) 



 Orbital guess generated from atomic densities. Full valence occupancy:    4   1   2   0

 Molecular orbital dump at record        2100.2

 Initial alpha occupancy:   3   1   1   0
 Initial beta  occupancy:   3   1   1   0
 Wave function symmetry:    1

 ITERATION    DDIFF          GRAD             ENERGY        2-EL.EN.            DIPOLE MOMENTS         DIIS
    1      0.000D+00      0.000D+00       -76.02273946     77.631585    1.13290    0.00000    0.00000    0
    2      0.000D+00      0.121D-01       -76.04948823     74.066647    0.67044    0.00000    0.00000    1
    3      0.206D-01      0.757D-02       -76.06032035     75.629576    0.78480    0.00000    0.00000    2
    4      0.724D-02      0.703D-03       -76.06050141     75.541054    0.78138    0.00000    0.00000    3
    5      0.939D-03      0.189D-03       -76.06051898     75.554590    0.78014    0.00000    0.00000    4
    6      0.286D-03      0.353D-04       -76.06051998     75.553872    0.77999    0.00000    0.00000    5
    7      0.681D-04      0.675D-05       -76.06052002     75.553987    0.77990    0.00000    0.00000    6
    8      0.179D-04      0.129D-05       -76.06052002     75.553945    0.77987    0.00000    0.00000    5
    9      0.302D-05      0.368D-06       -76.06052002     75.553983    0.77987    0.00000    0.00000    0

 Final occupancy:   3   1   1   0

 !RHF STATE 1.1 Energy                -76.060520021956
 Nuclear energy                         9.18080448
 One-electron energy                 -123.01831603
 Two-electron energy                   37.77699152
 Virial quotient                       -1.00141635
 !RHF STATE 1.1 Dipole moment           0.77987073     0.00000000     0.00000000
 Dipole moment /Debye                   1.98210385     0.00000000     0.00000000

 Orbital energies:

         1.1          2.1          3.1          4.1          5.1
    -20.567401    -1.352805    -0.584499     0.029432     0.135969

         1.2          2.2          3.2
     -0.510219     0.158566     0.300650

         1.3          2.3          3.3
     -0.717242     0.047673     0.182955

         1.4          2.4
      0.265228     0.722215


 **********************************************************************************************************************************
 DATASETS  * FILE   NREC   LENGTH (MB)   RECORD NAMES
              1      18        2.69       500      610      700      900      950      970     1000      129      960     1100   
                                          VAR    BASINP    GEOM    SYMINP    ZMAT    AOBASIS   BASIS     P2S    ABASIS      S 
                                         1400     1410     1200     1210     1080     1600     1650     1700   
                                           T        V       H0       H01     AOSYM     SMH    MOLCAS    OPER   

              2       3        0.35       700     1000     2100   
                                         GEOM     BASIS     RHF  

 PROGRAMS   *        TOTAL        HF       INT
 CPU TIMES  *         0.35      0.05      0.23
 REAL TIME  *         0.42 SEC
 DISK USED  *        59.58 MB      
 SF USED    *         0.01 MB      
 GA USED    *         0.00 MB       (max)       0.00 MB       (current)
 **********************************************************************************************************************************


1PROGRAM * CCSD (Closed-shell coupled cluster)     Authors: C. Hampel, H.-J. Werner, 1991, M. Deegan, P.J. Knowles, 1992

                                  CCSD-F12 implementation by  H.-J. Werner, 2007

                   Density fitting integral evaluation by F.R. Manby, 2003,2007, G. Knizia, 2010

 Basis set CC-PVTZ/JKFIT generated.      Number of basis functions:   139 
 Basis set AUG-CC-PVTZ/MP2FIT generated. Number of basis functions:   198 

 Convergence thresholds:  THRVAR = 1.00D-08  THRDEN = 1.00D-06

 CCSD(T)     terms to be evaluated (factor= 1.000)


 Number of core orbitals:           1 (   1   0   0   0 )
 Number of closed-shell orbitals:   4 (   2   1   1   0 )
 Number of external orbitals:      87 (  32  17  26  12 )

 Molecular orbitals read from record     2100.2  Type=RHF/CANONICAL (state 1.1)

 MP2-F12 correlation treatment (H.-J. Werner, 2006)
 --------------------------------------------------

 Using MP2-F12 with ansatz 3C(FIX)

 Using projected zeroth-order Hamiltonian (+Z)

 FOCKRIB=T FOCKRIC=T FOCKRIP=T CABSP=T CABSA=T CABSK=T CABSF=T GBC=F EBC=F DMAT=T NOFIK=T NOPAO=1 SOLVE=-1  USEPAO=0
 EXCH_A= T EXCH_B= F EXCH_C= F EXCH_P= F
 
 Geminal basis:    OPTFULL  GEM_TYPE=SLATER  BETA=1.0  NGEM=6

 Optimizing Gaussian exponents for each gem_beta

 Geminal optimization for beta= 1.0000
 Weight function:   m=0, omega= 1.4646

 Augmented Hessian optimization of geminal fit. Trust ratio= 0.40000
 Convergence reached after   2 iterations. Final gradient= 8.24D-16, Step= 4.32D-06, Delta= 1.28D-09
 
 Alpha:                 0.19532     0.81920     2.85917     9.50073    35.69989   197.79328
 Coeff:                 0.27070     0.30552     0.18297     0.10986     0.06810     0.04224
 

 Symmetry turned off. Reference energy:        -76.060520021956

 All pairs explicitly correlated. Number of r12-pairs:           10
 
 AO(A)-basis ORBITAL           loaded. Number of functions:      92
 RI(R)-basis CC-PVTZ/JKFIT     loaded. Number of functions:     139
 DF-basis CC-PVTZ/JKFIT        loaded. Number of functions:     139

 Screening thresholds:   THRAO=  1.00D-10  THRMO=  1.00D-09  THRPROD=  1.00D-09
                         THRSW=  1.00D-05  THROV=  1.00D-12  THRF12=   1.00D-08

 CPU time for Fock operators                      0.10 sec
 
 Construction of ABS:
 Smallest eigenvalue of S          3.59E-04  (threshold= 1.00E-08)
 Ratio eigmin/eigmax               3.30E-06  (threshold= 1.00E-09)
 Smallest eigenvalue of S kept     3.59E-04  (threshold= 3.59E-04, 0 functions deleted, 139 kept)
 
 Construction of CABS:
 Smallest eigenvalue of S          4.96E-08  (threshold= 1.00E-08)
 Ratio eigmin/eigmax               4.96E-08  (threshold= 1.00E-09)
 Smallest eigenvalue of S kept     4.96E-08  (threshold= 4.96E-08, 0 functions deleted, 139 kept)
 
 CPU time for CABS singles                        0.01 sec

 CABS-singles contribution of  -0.00457640 patched into reference energy.
 New reference energy         -76.06509642
 
 AO(A)-basis ORBITAL           loaded. Number of functions:      92
 RI(R)-basis CC-PVTZ/JKFIT     loaded. Number of functions:     139
 DF-basis AUG-CC-PVTZ/MP2FIT   loaded. Number of functions:     198

 Screening thresholds:   THRAO=  1.00D-10  THRMO=  1.00D-09  THRPROD=  1.00D-09
                         THRSW=  1.00D-05  THROV=  1.00D-12  THRF12=   1.00D-08

 CPU time for 3-index integral evaluation         0.25 sec
 CPU time for first  half transformation          0.01 sec ( 6352.4 MFLOP/sec)
 CPU time for second half transformation          0.01 sec (  168.5 MFLOP/sec)
 CPU time for tilde quantities                    0.09 sec (  374.6 MFLOP/sec)
 CPU time for assembly                            0.03 sec ( 5858.6 MFLOP/sec)
 CPU time for tranop_f12                          0.01 sec (18417.4 MFLOP/sec)
 CPU time for f12 integrals (total)               0.54 sec
 F12-matrices built in  3 passes.
 F12-matrices built in  3 passes.
 F12-matrices built in  3 passes.
 F12-matrices built in  3 passes.
 FC-matrix built in  3 passes.
 CPU time for f12 matrices (total)                0.01 sec

 Diagonal F12 approximation with fixed coefficients:  TSING= 0.500,  TTRIP= 0.250 (scaled by -1/beta)

 DF-MP2-F12 energy corrections:
 ------------------------------
 Approx.                                    Singlet             Triplet             Total
 DF-MP2-F12/3*C(DX,FIX)                -0.029754312428     -0.004892357398     -0.034646669826
 DF-MP2-F12/3*C(FIX)                   -0.024460763275     -0.003801340369     -0.028262103644
 DF-MP2-F12/3C(FIX)                    -0.024577827815     -0.003791032174     -0.028368859990

 DF-MP2-F12 correlation energies:
 --------------------------------
 Approx.                                    Singlet             Triplet             Ecorr            Total Energy
 DF-MP2                                -0.170663706486     -0.097768902500     -0.268432608987    -76.333529028949
 DF-MP2-F12/3*C(DX,FIX)                -0.200418018914     -0.102661259898     -0.303079278812    -76.368175698775
 DF-MP2-F12/3*C(FIX)                   -0.195124469761     -0.101570242869     -0.296694712630    -76.361791132593
 DF-MP2-F12/3C(FIX)                    -0.195241534302     -0.101559934675     -0.296801468976    -76.361897888938

 SCS-DF-MP2 energies (F_SING= 1.20000  F_TRIP= 0.62222  F_PARALLEL= 0.33333):
 ----------------------------------------------------------------------------
 SCS-DF-MP2                            -0.265630431562    -76.330726851524
 SCS-DF-MP2-F12/3*C(DX,FIX)            -0.304379739967    -76.369476159929
 SCS-DF-MP2-F12/3*C(FIX)               -0.297348625943    -76.362445045905
 SCS-DF-MP2-F12/3C(FIX)                -0.297482689404    -76.362579109366

 Symmetry restored.
 Symmetry transformation completed.

 Number of N-1 electron functions:               4
 Number of N-2 electron functions:              10
 Number of singly external CSFs:               107
 Number of doubly external CSFs:             15793
 Total number of CSFs:                       15901

 Pair and operator lists are different

 Length of J-op  integral file:               8.28 MB
 Length of K-op  integral file:              12.26 MB
 Length of 3-ext integral record:             0.00 MB

 Memory could be reduced to 1.46 Mwords without degradation in triples

 Integral transformation finished. Total CPU:   0.04 sec, npass=  1  Memory used:   0.25 MW

 Reference energy:                    -76.06509642

 Adding F12 terms to K(Cij), methodcc=6,  factor=1.0

 ITER.      SQ.NORM     CORR.ENERGY   TOTAL ENERGY   ENERGY CHANGE        DEN1      VAR(S)    VAR(P)  DIIS     TIME
   1      1.06111015    -0.26826850   -76.33336492     0.00018673     0.00590275  0.74D-03  0.97D-03  1  1     0.81
   2      1.06434288    -0.26792577   -76.33302219     0.00034273    -0.00445755  0.12D-04  0.10D-03  2  2     0.83
   3      1.06547142    -0.26803648   -76.33313290    -0.00011071    -0.00076665  0.86D-05  0.53D-05  3  3     0.86
   4      1.06592261    -0.26807168   -76.33316810    -0.00003520    -0.00025969  0.37D-06  0.55D-06  4  4     0.89
   5      1.06600553    -0.26806845   -76.33316487     0.00000323    -0.00002472  0.13D-06  0.35D-07  5  5     0.92
   6      1.06603351    -0.26806656   -76.33316298     0.00000189    -0.00000402  0.10D-07  0.23D-08  6  6     0.94
   7      1.06603963    -0.26806616   -76.33316258     0.00000040    -0.00000131  0.77D-09  0.32D-09  6  1     0.97
   8      1.06604074    -0.26806628   -76.33316270    -0.00000012     0.00000015  0.86D-10  0.28D-10  6  2     1.00

 Norm of t1 vector:      0.03585495      S-energy:    -0.00000010      T1 diagnostic:  0.00896374
                                                                       D1 diagnostic:  0.01778661

 Adding energy correction from Wij-K(Fij), methodcc=6  factor=1.0
 
  CCSD correlation energy              -0.268066277469
  MP2-F12 correction (uncoupled)       -0.028074057140
  C*T doubles correction               -0.000435689008
  f12b correction                       0.004752267637


 Total CPU time for triples:      0.06 sec


 RESULTS
 =======

  Reference energy                    -76.060520021956
  F12 singles correction               -0.004576398006

 F12 singles corrections added to reference energy

  New reference energy                -76.065096419962

  F12a singlet correction              -0.024660641585
  F12a triplet correction              -0.003849104563
  F12a total correction                -0.028509746148

 F12a corrections for ansatz F12/3C(FIX) added to CCSD energy
 
  CCSD-F12a singlet pair energy        -0.206115296660
  CCSD-F12a triplet pair energy        -0.090460622091
  CCSD-F12a correlation energy         -0.296576023617

  Triples (T) contribution             -0.008437416735
  Total correlation energy             -0.305013440352

  CCSD-F12a total energy              -76.361672443579
  CCSD[T]-F12a energy                 -76.370408177893
  CCSD-T-F12a energy                  -76.369988324740
 !CCSD(T)-F12a total energy           -76.370109860314

 F12b corrections for ansatz F12/3C(FIX) added to CCSD(T)-F12a energy

  CCSD-F12b singlet pair energy        -0.201725134229
  CCSD-F12b triplet pair energy        -0.090098516884
  CCSD-F12b correlation energy         -0.291823755980

  Triples (T) contribution             -0.008437416735
  Total correlation energy             -0.300261172715

  CCSD-F12b total energy              -76.356920175942
  CCSD[T]-F12b energy                 -76.365655910256
  CCSD-T-F12b energy                  -76.365236057103
 !CCSD(T)-F12b total energy           -76.365357592677

 Timing summary (sec):

 STEP                 CPU(USER)    SYS     CPU(TOT)    WALL
 Transformation          0.04      0.00      0.04      0.04
 CCSD iterations         0.26      0.02      0.28      0.29
 Triples                 0.06      0.00      0.06      0.05
 MP2-F12                 0.70      0.04      0.74      0.74
 F12b energy             0.02      0.00      0.02      0.03

 Program statistics:

 Available memory in ccsd:                99999786
 Min. memory needed in ccsd:                 80557
 Max. memory used in ccsd:                   91994
 Max. memory used in cckext:                125369 ( 9 integral passes)



 **********************************************************************************************************************************
 DATASETS  * FILE   NREC   LENGTH (MB)   RECORD NAMES
              1      20        5.82       500      610      700      900      950      970     1000      129      960     1100   
                                          VAR    BASINP    GEOM    SYMINP    ZMAT    AOBASIS   BASIS     P2S    ABASIS      S 
                                         1400     1410     1200     1210     1080     1600     1650     1700      960(1)  1380   
                                           T        V       H0       H01     AOSYM     SMH    MOLCAS    OPER    ABASIS    JKOP   

              2       5        0.40       700     1000     2100     7360     7350   
                                         GEOM     BASIS     RHF    F12ABS    EF12   

 PROGRAMS   *        TOTAL   CCSD(T)        HF       INT
 CPU TIMES  *         1.46      1.10      0.05      0.23
 REAL TIME  *         1.60 SEC
 DISK USED  *        64.49 MB      
 SF USED    *        38.21 MB      
 GA USED    *         2.40 MB       (max)       0.00 MB       (current)
 **********************************************************************************************************************************

     CCSD(T)-F12        HF-SCF  
    -76.36535759    -76.06052002
 **********************************************************************************************************************************
 Variable memory released
