
 Primary working directories    : /scratch/kee
 Secondary working directories  : /scratch/kee
 Wavefunction directory         : /home/kee/wfu/
 Main file repository           : /scratch/kee/

 ARCHNAME  : Linux/x86_64
 FC        : /opt/intel/composer_xe_2015.0.090/bin/intel64/ifort
 FCVERSION : 15.0.0
 BLASLIB   : -L/opt/intel/mkl/lib/intel64 -lmkl_intel_ilp64 -lmkl_sequential -lmkl_core
 id        : emory

 Nodes     nprocs
 node23       3
 Number of processes for MPI-2 version of Molpro:   nprocs(total)=    4   nprocs(compute)=    3   nprocs(helper)=    1
 ga_uses_ma=false, calling ma_init with nominal heap.
 GA-space will be limited to   8.0 MW (determined by -G option)

 Using customized tuning parameters: mindgm=7; mindgv=32; mindgc=1; mindgr=1; noblas=0; mincuda=1000; minvec=7
 default implementation of scratch files=sf  

 ***,co2h2o
 memory,100,m
 basis avtz
 geomtype = xyz
 geometry = {
 6
       0.00000000
 O     0.02747900    1.16001200    0.00000000
 O    -0.00936500   -1.16396300    0.00000000
 O     3.27534055   -0.01598393    0.00000000
 H     3.66443555    0.42529007    0.75746400
 H     3.66443555    0.42529007   -0.75746400
 C     0.02536600   -0.00312200    0.00000000
 }
 hf
 ccsd(t)-f12
 ---

 Variables initialized (665), CPU time= 0.00 sec
 Commands  initialized (462), CPU time= 0.01 sec, 486 directives.
 Default parameters read. Elapsed time= 0.05 sec

 Checking input...
 Passed
1


                                         ***  PROGRAM SYSTEM MOLPRO  ***
                         Copyright, University College Cardiff Consultants Limited, 2008

                                    Version 2010.1 linked 9 Dec 2014 15:06:28 


 **********************************************************************************************************************************
 LABEL *   co2h2o                                                                        
 Linux-2.6.32-504.el6.x86_64/node23(x86_64) 64 bit mpp version                           DATE: 15-Dec-16          TIME: 00:07:51  
 **********************************************************************************************************************************

 Patch level:      19
 **********************************************************************************************************************************

 Variable memory set to  100000000 words,  buffer space   230000 words

 SETTING BASIS          =    AVTZ
 SETTING GEOMTYPE       =    XYZ

Geometry recognized as XYZ



 Recomputing integrals since basis changed


 Using spherical harmonics

 Library entry O      S aug-cc-pVTZ          selected for orbital group  1
 Library entry O      P aug-cc-pVTZ          selected for orbital group  1
 Library entry O      D aug-cc-pVTZ          selected for orbital group  1
 Library entry O      F aug-cc-pVTZ          selected for orbital group  1
 Library entry H      S aug-cc-pVTZ          selected for orbital group  2
 Library entry H      P aug-cc-pVTZ          selected for orbital group  2
 Library entry H      D aug-cc-pVTZ          selected for orbital group  2
 Library entry C      S aug-cc-pVTZ          selected for orbital group  3
 Library entry C      P aug-cc-pVTZ          selected for orbital group  3
 Library entry C      D aug-cc-pVTZ          selected for orbital group  3
 Library entry C      F aug-cc-pVTZ          selected for orbital group  3

1PROGRAM * SEWARD (Integral evaluation for generally contracted gaussian basis sets)     Author: Roland Lindh, 1990

 Geometry written to block  1 of record 700


 Point group  Cs  



 ATOMIC COORDINATES

 NR  ATOM    CHARGE       X              Y              Z

   1  O       8.00    0.051927784    2.192104989    0.000000000
   2  O       8.00   -0.017697285   -2.199571297    0.000000000
   3  O       8.00    6.189496627   -0.030205250    0.000000000
   4  H       1.00    6.924779616    0.803681759    1.431399514
   5  H       1.00    6.924779616    0.803681759   -1.431399514
   6  C       6.00    0.047934793   -0.005899725    0.000000000

 Bond lengths in Bohr (Angstrom)

 1-6  2.198008341  2-6  2.194653170  3-4  1.812432947  3-5  1.812432947
     (1.163135919)     (1.161360439)     (0.959098208)     (0.959098208)

 Bond angles

  1-6-2  178.39037465   4-3-5  104.32746287

 NUCLEAR CHARGE:                   32
 NUMBER OF PRIMITIVE AOS:         322
 NUMBER OF SYMMETRY AOS:          282
 NUMBER OF CONTRACTIONS:          230   ( 143A'  +  87A"  )
 NUMBER OF CORE ORBITALS:           4   (   4A'  +   0A"  )
 NUMBER OF VALENCE ORBITALS:       18   (  13A'  +   5A"  )


 NUCLEAR REPULSION ENERGY  100.82246076


 Eigenvalues of metric

         1 0.284E-03 0.338E-03 0.366E-03 0.851E-03 0.888E-03 0.115E-02 0.173E-02 0.229E-02
         2 0.384E-03 0.156E-02 0.311E-02 0.346E-02 0.456E-02 0.618E-02 0.923E-02 0.116E-01


 Contracted 2-electron integrals neglected if value below      1.0D-11
 AO integral compression algorithm  1   Integral accuracy      1.0D-11

     698.614 MB (compressed) written to integral file ( 41.2%)

     Node minimum: 219.152 MB, node maximum: 240.124 MB


 NUMBER OF SORTED TWO-ELECTRON INTEGRALS:   59530350.     BUFFER LENGTH:  32768
 NUMBER OF SEGMENTS:   4  SEGMENT LENGTH:   15999984      RECORD LENGTH: 524288

 Memory used in sort:      16.56 MW

 SORT1 READ   212043035. AND WROTE    51882582. INTEGRALS IN    151 RECORDS. CPU TIME:     3.81 SEC, REAL TIME:     4.39 SEC
 SORT2 READ   156585246. AND WROTE   178576926. INTEGRALS IN   2739 RECORDS. CPU TIME:     1.47 SEC, REAL TIME:     1.97 SEC

 Node minimum:    59520934.  Node maximum:    59530350. integrals

 OPERATOR DM      FOR CENTER  0  COORDINATES:    0.000000    0.000000    0.000000


 **********************************************************************************************************************************
 DATASETS  * FILE   NREC   LENGTH (MB)   RECORD NAMES
              1      18        3.71       500      610      700      900      950      970     1000      129      960     1100   
                                          VAR    BASINP    GEOM    SYMINP    ZMAT    AOBASIS   BASIS     P2S    ABASIS      S 
                                         1400     1410     1200     1210     1080     1600     1650     1700   
                                           T        V       H0       H01     AOSYM     SMH    MOLCAS    OPER   

 PROGRAMS   *        TOTAL       INT
 CPU TIMES  *         9.48      9.40
 REAL TIME  *        11.04 SEC
 DISK USED  *         2.55 GB      
 GA USED    *         0.00 MB       (max)       0.00 MB       (current)
 **********************************************************************************************************************************

1PROGRAM * RHF-SCF (CLOSED SHELL)       Authors: W. Meyer, H.-J. Werner


 NUMBER OF ELECTRONS:      16+   16-
 CONVERGENCE THRESHOLDS:    1.00E-05 (Density)    1.00E-07 (Energy)
 MAX. NUMBER OF ITERATIONS:       60
 INTERPOLATION TYPE:            DIIS
 INTERPOLATION STEPS:              2 (START)      1 (STEP)
 LEVEL SHIFTS:                  0.00 (CLOSED)  0.00 (OPEN) 



 Orbital guess generated from atomic densities. Full valence occupancy:   17   5

 Molecular orbital dump at record        2100.2

 Initial alpha occupancy:  13   3
 Initial beta  occupancy:  13   3
 Wave function symmetry:    1

 ITERATION    DDIFF          GRAD             ENERGY        2-EL.EN.            DIPOLE MOMENTS         DIIS
    1      0.000D+00      0.000D+00      -263.66498799    397.662926    0.81184    0.84362    0.00000    0
    2      0.000D+00      0.635D-02      -263.72931870    393.056633    0.56983    0.46210    0.00000    1
    3      0.102D-01      0.428D-02      -263.77082971    395.556795    0.62407    0.56490    0.00000    2
    4      0.417D-02      0.413D-03      -263.77132772    395.360042    0.62469    0.56258    0.00000    3
    5      0.497D-03      0.123D-03      -263.77138689    395.353943    0.62193    0.56316    0.00000    4
    6      0.188D-03      0.506D-04      -263.77139472    395.369897    0.62241    0.56096    0.00000    5
    7      0.633D-04      0.127D-04      -263.77139551    395.362034    0.62220    0.56187    0.00000    6
    8      0.214D-04      0.406D-05      -263.77139558    395.362332    0.62218    0.56117    0.00000    7
    9      0.601D-05      0.240D-05      -263.77139558    395.362899    0.62219    0.56157    0.00000    0

 Final occupancy:  13   3

 !RHF STATE 1.1 Energy               -263.771395583961
 Nuclear energy                       100.82246076
 One-electron energy                 -562.27530589
 Two-electron energy                  197.68144955
 Virial quotient                       -1.00183207
 !RHF STATE 1.1 Dipole moment           0.62218967     0.56156807     0.00000000
 Dipole moment /Debye                   1.58134481     1.42727018     0.00000000

 Orbital energies:

         1.1          2.1          3.1          4.1          5.1          6.1          7.1          8.1          9.1         10.1
    -20.638540   -20.638083   -20.575449   -11.447911    -1.516056    -1.463120    -1.361153    -0.787157    -0.729569    -0.700159

        11.1         12.1         13.1         14.1         15.1
     -0.594000    -0.530919    -0.518362     0.026486     0.062521

         1.2          2.2          3.2          4.2          5.2
     -0.724726    -0.700538    -0.530462     0.045901     0.088353


 **********************************************************************************************************************************
 DATASETS  * FILE   NREC   LENGTH (MB)   RECORD NAMES
              1      18        3.72       500      610      700      900      950      970     1000      129      960     1100   
                                          VAR    BASINP    GEOM    SYMINP    ZMAT    AOBASIS   BASIS     P2S    ABASIS      S 
                                         1400     1410     1200     1210     1080     1600     1650     1700   
                                           T        V       H0       H01     AOSYM     SMH    MOLCAS    OPER   

              2       3        0.94       700     1000     2100   
                                         GEOM     BASIS     RHF  

 PROGRAMS   *        TOTAL        HF       INT
 CPU TIMES  *        14.21      4.73      9.40
 REAL TIME  *        16.16 SEC
 DISK USED  *         2.57 GB      
 SF USED    *         0.11 MB      
 GA USED    *         0.00 MB       (max)       0.00 MB       (current)
 **********************************************************************************************************************************


1PROGRAM * CCSD (Closed-shell coupled cluster)     Authors: C. Hampel, H.-J. Werner, 1991, M. Deegan, P.J. Knowles, 1992

                                  CCSD-F12 implementation by  H.-J. Werner, 2007

                   Density fitting integral evaluation by F.R. Manby, 2003,2007, G. Knizia, 2010

 Basis set CC-PVTZ/JKFIT generated.      Number of basis functions:   376 
 Basis set AUG-CC-PVTZ/MP2FIT generated. Number of basis functions:   516 

 Convergence thresholds:  THRVAR = 1.00D-08  THRDEN = 1.00D-06

 CCSD(T)     terms to be evaluated (factor= 1.000)


 Number of core orbitals:           4 (   4   0 )
 Number of closed-shell orbitals:  12 (   9   3 )
 Number of external orbitals:     214 ( 130  84 )

 Molecular orbitals read from record     2100.2  Type=RHF/CANONICAL (state 1.1)

 MP2-F12 correlation treatment (H.-J. Werner, 2006)
 --------------------------------------------------

 Using MP2-F12 with ansatz 3C(FIX)

 Using projected zeroth-order Hamiltonian (+Z)

 FOCKRIB=T FOCKRIC=T FOCKRIP=T CABSP=T CABSA=T CABSK=T CABSF=T GBC=F EBC=F DMAT=T NOFIK=T NOPAO=1 SOLVE=-1  USEPAO=0
 EXCH_A= T EXCH_B= F EXCH_C= F EXCH_P= F
 
 Geminal basis:    OPTFULL  GEM_TYPE=SLATER  BETA=1.0  NGEM=6

 Optimizing Gaussian exponents for each gem_beta

 Geminal optimization for beta= 1.0000
 Weight function:   m=0, omega= 1.4646

 Augmented Hessian optimization of geminal fit. Trust ratio= 0.40000
 Convergence reached after   2 iterations. Final gradient= 8.24D-16, Step= 4.32D-06, Delta= 1.28D-09
 
 Alpha:                 0.19532     0.81920     2.85917     9.50073    35.69989   197.79328
 Coeff:                 0.27070     0.30552     0.18297     0.10986     0.06810     0.04224
 

 Symmetry turned off. Reference energy:       -263.771395583961

 All pairs explicitly correlated. Number of r12-pairs:           78
 
 AO(A)-basis ORBITAL           loaded. Number of functions:     230
 RI(R)-basis CC-PVTZ/JKFIT     loaded. Number of functions:     376
 DF-basis CC-PVTZ/JKFIT        loaded. Number of functions:     376

 Screening thresholds:   THRAO=  1.00D-10  THRMO=  1.00D-09  THRPROD=  1.00D-09
                         THRSW=  1.00D-05  THROV=  1.00D-12  THRF12=   1.00D-08

 CPU time for Fock operators                      1.12 sec
 
 Construction of ABS:
 Smallest eigenvalue of S          2.55E-04  (threshold= 1.00E-08)
 Ratio eigmin/eigmax               1.81E-06  (threshold= 1.00E-09)
 Smallest eigenvalue of S kept     2.55E-04  (threshold= 2.55E-04, 0 functions deleted, 376 kept)
 
 Construction of CABS:
 Smallest eigenvalue of S          2.28E-08  (threshold= 1.00E-08)
 Ratio eigmin/eigmax               2.28E-08  (threshold= 1.00E-09)
 Smallest eigenvalue of S kept     2.28E-08  (threshold= 2.28E-08, 0 functions deleted, 376 kept)
 
 CPU time for CABS singles                        0.18 sec

 CABS-singles contribution of  -0.01595264 patched into reference energy.
 New reference energy        -263.78734822
 
 AO(A)-basis ORBITAL           loaded. Number of functions:     230
 RI(R)-basis CC-PVTZ/JKFIT     loaded. Number of functions:     376
 DF-basis AUG-CC-PVTZ/MP2FIT   loaded. Number of functions:     516

 Screening thresholds:   THRAO=  1.00D-10  THRMO=  1.00D-09  THRPROD=  1.00D-09
                         THRSW=  1.00D-05  THROV=  1.00D-12  THRF12=   1.00D-08

 CPU time for 3-index integral evaluation         3.26 sec
 CPU time for first  half transformation          0.29 sec ( 9995.9 MFLOP/sec)
 CPU time for second half transformation          0.02 sec ( 5661.3 MFLOP/sec)
 CPU time for sorting                             0.17 sec
 CPU time for fitting                             0.05 sec (27861.0 MFLOP/sec)
 CPU time for tilde quantities                    0.07 sec (26412.6 MFLOP/sec)
 CPU time for assembly                            0.93 sec (25788.9 MFLOP/sec)
 CPU time for tranop_f12                          1.01 sec (29750.0 MFLOP/sec)
 CPU time for f12 integrals (total)               8.15 sec
 F12-matrices built in  3 passes.
 F12-matrices built in  3 passes.
 F12-matrices built in  3 passes.
 F12-matrices built in  3 passes.
 FC-matrix built in  3 passes.
 CPU time for f12 matrices (total)                0.60 sec

 Diagonal F12 approximation with fixed coefficients:  TSING= 0.500,  TTRIP= 0.250 (scaled by -1/beta)

 DF-MP2-F12 energy corrections:
 ------------------------------
 Approx.                                    Singlet             Triplet             Total
 DF-MP2-F12/3*C(DX,FIX)                -0.097337779458     -0.016945559094     -0.114283338553
 DF-MP2-F12/3*C(FIX)                   -0.079773324225     -0.013422538971     -0.093195863195
 DF-MP2-F12/3C(FIX)                    -0.080141421834     -0.013454354589     -0.093595776422

 DF-MP2-F12 correlation energies:
 --------------------------------
 Approx.                                    Singlet             Triplet             Ecorr            Total Energy
 DF-MP2                                -0.537899179838     -0.343774420084     -0.881673599921   -264.669021824913
 DF-MP2-F12/3*C(DX,FIX)                -0.635236959296     -0.360719979178     -0.995956938474   -264.783305163465
 DF-MP2-F12/3*C(FIX)                   -0.617672504062     -0.357196959054     -0.974869463117   -264.762217688108
 DF-MP2-F12/3C(FIX)                    -0.618040601671     -0.357228774672     -0.975269376344   -264.762617601335

 SCS-DF-MP2 energies (F_SING= 1.20000  F_TRIP= 0.62222  F_PARALLEL= 0.33333):
 ----------------------------------------------------------------------------
 SCS-DF-MP2                            -0.859383099413   -264.646731324404
 SCS-DF-MP2-F12/3*C(DX,FIX)            -0.986732338199   -264.774080563191
 SCS-DF-MP2-F12/3*C(FIX)               -0.963462890509   -264.750811115500
 SCS-DF-MP2-F12/3C(FIX)                -0.963924404024   -264.751272629015

 Symmetry restored.
 Symmetry transformation completed.

 Number of N-1 electron functions:              12
 Number of N-2 electron functions:              78
 Number of singly external CSFs:              1422
 Number of doubly external CSFs:           1668984
 Total number of CSFs:                     1670407

 Pair and operator lists are different

 Length of J-op  integral file:             466.33 MB
 Length of K-op  integral file:             525.76 MB
 Length of 3-ext integral record:             0.00 MB

 Memory could be reduced to 76.19 Mwords without degradation in triples

 Integral transformation finished. Total CPU:   4.67 sec, npass=  1  Memory used:  26.50 MW

 Reference energy:                   -263.78734822

 Adding F12 terms to K(Cij), methodcc=6,  factor=1.0

 ITER.      SQ.NORM     CORR.ENERGY   TOTAL ENERGY   ENERGY CHANGE        DEN1      VAR(S)    VAR(P)  DIIS     TIME
   1      1.20225875    -0.86360661  -264.65095483     0.01808123     0.04668397  0.72D-02  0.55D-02  1  1    18.53
   2      1.21659739    -0.85941380  -264.64676203     0.00419280    -0.02016730  0.88D-04  0.59D-03  2  2    21.88
   3      1.22197529    -0.85952016  -264.64686839    -0.00010636    -0.00235942  0.13D-03  0.32D-04  3  3    25.21
   4      1.22479105    -0.85939153  -264.64673975     0.00012863    -0.00141558  0.77D-05  0.41D-05  4  4    28.56
   5      1.22582466    -0.85935413  -264.64670235     0.00003740    -0.00036602  0.58D-06  0.29D-06  5  5    31.93
   6      1.22598805    -0.85932721  -264.64667543     0.00002692    -0.00000810  0.43D-07  0.24D-07  6  6    35.33
   7      1.22601824    -0.85932474  -264.64667296     0.00000247    -0.00000632  0.32D-08  0.41D-08  6  4    38.70
   8      1.22601899    -0.85932421  -264.64667243     0.00000053     0.00000182  0.43D-09  0.30D-09  6  1    42.09
   9      1.22601960    -0.85932428  -264.64667250    -0.00000007     0.00000060  0.39D-10  0.27D-10  6  2    45.47

 Norm of t1 vector:      0.10628567      S-energy:     0.00000121      T1 diagnostic:  0.01534101
                                                                       D1 diagnostic:  0.04532650

 Adding energy correction from Wij-K(Fij), methodcc=6  factor=1.0
 
  CCSD correlation energy              -0.859324278430
  MP2-F12 correction (uncoupled)       -0.092436462836
  C*T doubles correction               -0.001472102226
  f12b correction                       0.015405749285


 Total CPU time for triples:     77.29 sec


 RESULTS
 =======

  Reference energy                   -263.771395583961
  F12 singles correction               -0.015952641030

 F12 singles corrections added to reference energy

  New reference energy               -263.787348224991

  F12a singlet correction              -0.080339937237
  F12a triplet correction              -0.013568627825
  F12a total correction                -0.093908565062

 F12a corrections for ansatz F12/3C(FIX) added to CCSD energy
 
  CCSD-F12a singlet pair energy        -0.641906709051
  CCSD-F12a triplet pair energy        -0.311327342045
  CCSD-F12a correlation energy         -0.953232843492

  Triples (T) contribution             -0.037807377503
  Total correlation energy             -0.991040220995

  CCSD-F12a total energy             -264.740581068483
  CCSD[T]-F12a energy                -264.780934961971
  CCSD-T-F12a energy                 -264.777452491934
 !CCSD(T)-F12a total energy          -264.778388445986

 F12b corrections for ansatz F12/3C(FIX) added to CCSD(T)-F12a energy

  CCSD-F12b singlet pair energy        -0.627727652276
  CCSD-F12b triplet pair energy        -0.310100649535
  CCSD-F12b correlation energy         -0.937827094207

  Triples (T) contribution             -0.037807377503
  Total correlation energy             -0.975634471710

  CCSD-F12b total energy             -264.725175319198
  CCSD[T]-F12b energy                -264.765529212686
  CCSD-T-F12b energy                 -264.762046742649
 !CCSD(T)-F12b total energy          -264.762982696701

 Timing summary (sec):

 STEP                 CPU(USER)    SYS     CPU(TOT)    WALL
 Transformation          4.70      0.58      5.28      5.28
 CCSD iterations        30.17      1.74     31.91     32.04
 Triples                77.29      1.68     78.97     78.94
 MP2-F12                10.61      1.36     11.97     11.98
 F12b energy             2.27      0.06      2.33      2.33

 Program statistics:

 Available memory in ccsd:                99998934
 Min. memory needed in ccsd:               4419579
 Max. memory used in ccsd:                 5922321
 Max. memory used in cckext:               6231049 (10 integral passes)



 **********************************************************************************************************************************
 DATASETS  * FILE   NREC   LENGTH (MB)   RECORD NAMES
              1      20      268.24       500      610      700      900      950      970     1000      129      960     1100   
                                          VAR    BASINP    GEOM    SYMINP    ZMAT    AOBASIS   BASIS     P2S    ABASIS      S 
                                         1400     1410     1200     1210     1080     1600     1650     1700      960(1)  1380   
                                           T        V       H0       H01     AOSYM     SMH    MOLCAS    OPER    ABASIS    JKOP   

              2       5        1.51       700     1000     2100     7360     7350   
                                         GEOM     BASIS     RHF    F12ABS    EF12   

 PROGRAMS   *        TOTAL   CCSD(T)        HF       INT
 CPU TIMES  *       139.34    125.13      4.73      9.40
 REAL TIME  *       147.04 SEC
 DISK USED  *         3.01 GB      
 SF USED    *         1.52 GB      
 GA USED    *         2.40 MB       (max)       0.00 MB       (current)
 **********************************************************************************************************************************

     CCSD(T)-F12        HF-SCF  
   -264.76298270   -263.77139558
 **********************************************************************************************************************************
 Variable memory released
