
 Primary working directories    : /scratch/kee
 Secondary working directories  : /scratch/kee
 Wavefunction directory         : /home/kee/wfu/
 Main file repository           : /scratch/kee/

 ARCHNAME  : Linux/x86_64
 FC        : /opt/intel/composer_xe_2015.0.090/bin/intel64/ifort
 FCVERSION : 15.0.0
 BLASLIB   : -L/opt/intel/mkl/lib/intel64 -lmkl_intel_ilp64 -lmkl_sequential -lmkl_core
 id        : emory

 Nodes     nprocs
 node23       3
 Number of processes for MPI-2 version of Molpro:   nprocs(total)=    4   nprocs(compute)=    3   nprocs(helper)=    1
 ga_uses_ma=false, calling ma_init with nominal heap.
 GA-space will be limited to   8.0 MW (determined by -G option)

 Using customized tuning parameters: mindgm=7; mindgv=32; mindgc=1; mindgr=1; noblas=0; mincuda=1000; minvec=7
 default implementation of scratch files=sf  

 ***,co2h2o
 memory,100,m
 basis avtz
 geomtype = xyz
 geometry = {
 6
       0.00000000
 O     0.02747900    1.16001200    0.00000000
 O    -0.00936500   -1.16396300    0.00000000
 O     3.12534172   -0.01539031    0.00000000
 H     3.51443672    0.42588369    0.75746400
 H     3.51443672    0.42588369   -0.75746400
 C     0.02536600   -0.00312200    0.00000000
 }
 hf
 ccsd(t)-f12
 ---

 Variables initialized (665), CPU time= 0.00 sec
 Commands  initialized (462), CPU time= 0.01 sec, 486 directives.
 Default parameters read. Elapsed time= 0.05 sec

 Checking input...
 Passed
1


                                         ***  PROGRAM SYSTEM MOLPRO  ***
                         Copyright, University College Cardiff Consultants Limited, 2008

                                    Version 2010.1 linked 9 Dec 2014 15:06:28 


 **********************************************************************************************************************************
 LABEL *   co2h2o                                                                        
 Linux-2.6.32-504.el6.x86_64/node23(x86_64) 64 bit mpp version                           DATE: 14-Dec-16          TIME: 23:59:08  
 **********************************************************************************************************************************

 Patch level:      19
 **********************************************************************************************************************************

 Variable memory set to  100000000 words,  buffer space   230000 words

 SETTING BASIS          =    AVTZ
 SETTING GEOMTYPE       =    XYZ

Geometry recognized as XYZ



 Recomputing integrals since basis changed


 Using spherical harmonics

 Library entry O      S aug-cc-pVTZ          selected for orbital group  1
 Library entry O      P aug-cc-pVTZ          selected for orbital group  1
 Library entry O      D aug-cc-pVTZ          selected for orbital group  1
 Library entry O      F aug-cc-pVTZ          selected for orbital group  1
 Library entry H      S aug-cc-pVTZ          selected for orbital group  2
 Library entry H      P aug-cc-pVTZ          selected for orbital group  2
 Library entry H      D aug-cc-pVTZ          selected for orbital group  2
 Library entry C      S aug-cc-pVTZ          selected for orbital group  3
 Library entry C      P aug-cc-pVTZ          selected for orbital group  3
 Library entry C      D aug-cc-pVTZ          selected for orbital group  3
 Library entry C      F aug-cc-pVTZ          selected for orbital group  3

1PROGRAM * SEWARD (Integral evaluation for generally contracted gaussian basis sets)     Author: Roland Lindh, 1990

 Geometry written to block  1 of record 700


 Point group  Cs  



 ATOMIC COORDINATES

 NR  ATOM    CHARGE       X              Y              Z

   1  O       8.00    0.051927784    2.192104989    0.000000000
   2  O       8.00   -0.017697285   -2.199571297    0.000000000
   3  O       8.00    5.906039918   -0.029083471    0.000000000
   4  H       1.00    6.641322907    0.804803538    1.431399514
   5  H       1.00    6.641322907    0.804803538   -1.431399514
   6  C       6.00    0.047934793   -0.005899725    0.000000000

 Bond lengths in Bohr (Angstrom)

 1-6  2.198008341  2-6  2.194653170  3-4  1.812432947  3-5  1.812432947
     (1.163135919)     (1.161360439)     (0.959098208)     (0.959098208)

 Bond angles

  1-6-2  178.39037465   4-3-5  104.32746287

 NUCLEAR CHARGE:                   32
 NUMBER OF PRIMITIVE AOS:         322
 NUMBER OF SYMMETRY AOS:          282
 NUMBER OF CONTRACTIONS:          230   ( 143A'  +  87A"  )
 NUMBER OF CORE ORBITALS:           4   (   4A'  +   0A"  )
 NUMBER OF VALENCE ORBITALS:       18   (  13A'  +   5A"  )


 NUCLEAR REPULSION ENERGY  102.25663889


 Eigenvalues of metric

         1 0.270E-03 0.335E-03 0.355E-03 0.833E-03 0.886E-03 0.109E-02 0.172E-02 0.216E-02
         2 0.382E-03 0.155E-02 0.310E-02 0.345E-02 0.451E-02 0.617E-02 0.905E-02 0.114E-01


 Contracted 2-electron integrals neglected if value below      1.0D-11
 AO integral compression algorithm  1   Integral accuracy      1.0D-11

     719.585 MB (compressed) written to integral file ( 42.4%)

     Node minimum: 202.637 MB, node maximum: 260.571 MB


 NUMBER OF SORTED TWO-ELECTRON INTEGRALS:   59530350.     BUFFER LENGTH:  32768
 NUMBER OF SEGMENTS:   4  SEGMENT LENGTH:   15999984      RECORD LENGTH: 524288

 Memory used in sort:      16.56 MW

 SORT1 READ   212043035. AND WROTE    53017334. INTEGRALS IN    154 RECORDS. CPU TIME:     3.54 SEC, REAL TIME:     4.13 SEC
 SORT2 READ   159905257. AND WROTE   178576926. INTEGRALS IN   2934 RECORDS. CPU TIME:     1.21 SEC, REAL TIME:     1.71 SEC

 Node minimum:    59520934.  Node maximum:    59530350. integrals

 OPERATOR DM      FOR CENTER  0  COORDINATES:    0.000000    0.000000    0.000000


 **********************************************************************************************************************************
 DATASETS  * FILE   NREC   LENGTH (MB)   RECORD NAMES
              1      18        3.71       500      610      700      900      950      970     1000      129      960     1100   
                                          VAR    BASINP    GEOM    SYMINP    ZMAT    AOBASIS   BASIS     P2S    ABASIS      S 
                                         1400     1410     1200     1210     1080     1600     1650     1700   
                                           T        V       H0       H01     AOSYM     SMH    MOLCAS    OPER   

 PROGRAMS   *        TOTAL       INT
 CPU TIMES  *         9.43      9.32
 REAL TIME  *        11.06 SEC
 DISK USED  *         2.64 GB      
 GA USED    *         0.00 MB       (max)       0.00 MB       (current)
 **********************************************************************************************************************************

1PROGRAM * RHF-SCF (CLOSED SHELL)       Authors: W. Meyer, H.-J. Werner


 NUMBER OF ELECTRONS:      16+   16-
 CONVERGENCE THRESHOLDS:    1.00E-05 (Density)    1.00E-07 (Energy)
 MAX. NUMBER OF ITERATIONS:       60
 INTERPOLATION TYPE:            DIIS
 INTERPOLATION STEPS:              2 (START)      1 (STEP)
 LEVEL SHIFTS:                  0.00 (CLOSED)  0.00 (OPEN) 



 Orbital guess generated from atomic densities. Full valence occupancy:   17   5

 Molecular orbital dump at record        2100.2

 Initial alpha occupancy:  13   3
 Initial beta  occupancy:  13   3
 Wave function symmetry:    1

 ITERATION    DDIFF          GRAD             ENERGY        2-EL.EN.            DIPOLE MOMENTS         DIIS
    1      0.000D+00      0.000D+00      -263.66553108    400.577679    0.81809    0.84363    0.00000    0
    2      0.000D+00      0.634D-02      -263.72969707    395.980753    0.58771    0.45951    0.00000    1
    3      0.102D-01      0.426D-02      -263.77086914    398.462201    0.63665    0.56411    0.00000    2
    4      0.416D-02      0.414D-03      -263.77136882    398.269470    0.63665    0.56109    0.00000    3
    5      0.499D-03      0.124D-03      -263.77142843    398.261390    0.63381    0.56221    0.00000    4
    6      0.189D-03      0.512D-04      -263.77143643    398.277615    0.63423    0.55970    0.00000    5
    7      0.638D-04      0.128D-04      -263.77143724    398.269892    0.63403    0.56072    0.00000    6
    8      0.217D-04      0.428D-05      -263.77143731    398.270055    0.63400    0.55999    0.00000    7
    9      0.613D-05      0.241D-05      -263.77143732    398.270694    0.63402    0.56037    0.00000    0

 Final occupancy:  13   3

 !RHF STATE 1.1 Energy               -263.771437316223
 Nuclear energy                       102.25663889
 One-electron energy                 -565.16342309
 Two-electron energy                  199.13534688
 Virial quotient                       -1.00181831
 !RHF STATE 1.1 Dipole moment           0.63401586     0.56037153     0.00000000
 Dipole moment /Debye                   1.61140203     1.42422907     0.00000000

 Orbital energies:

         1.1          2.1          3.1          4.1          5.1          6.1          7.1          8.1          9.1         10.1
    -20.636999   -20.636495   -20.576299   -11.446561    -1.514599    -1.461679    -1.362298    -0.785831    -0.728261    -0.699133

        11.1         12.1         13.1         14.1         15.1
     -0.595084    -0.530308    -0.518768     0.026232     0.063220

         1.2          2.2          3.2          4.2          5.2
     -0.725838    -0.699124    -0.529087     0.045830     0.089072


 **********************************************************************************************************************************
 DATASETS  * FILE   NREC   LENGTH (MB)   RECORD NAMES
              1      18        3.72       500      610      700      900      950      970     1000      129      960     1100   
                                          VAR    BASINP    GEOM    SYMINP    ZMAT    AOBASIS   BASIS     P2S    ABASIS      S 
                                         1400     1410     1200     1210     1080     1600     1650     1700   
                                           T        V       H0       H01     AOSYM     SMH    MOLCAS    OPER   

              2       3        0.94       700     1000     2100   
                                         GEOM     BASIS     RHF  

 PROGRAMS   *        TOTAL        HF       INT
 CPU TIMES  *        15.37      5.94      9.32
 REAL TIME  *        17.37 SEC
 DISK USED  *         2.67 GB      
 SF USED    *         0.11 MB      
 GA USED    *         0.00 MB       (max)       0.00 MB       (current)
 **********************************************************************************************************************************


1PROGRAM * CCSD (Closed-shell coupled cluster)     Authors: C. Hampel, H.-J. Werner, 1991, M. Deegan, P.J. Knowles, 1992

                                  CCSD-F12 implementation by  H.-J. Werner, 2007

                   Density fitting integral evaluation by F.R. Manby, 2003,2007, G. Knizia, 2010

 Basis set CC-PVTZ/JKFIT generated.      Number of basis functions:   376 
 Basis set AUG-CC-PVTZ/MP2FIT generated. Number of basis functions:   516 

 Convergence thresholds:  THRVAR = 1.00D-08  THRDEN = 1.00D-06

 CCSD(T)     terms to be evaluated (factor= 1.000)


 Number of core orbitals:           4 (   4   0 )
 Number of closed-shell orbitals:  12 (   9   3 )
 Number of external orbitals:     214 ( 130  84 )

 Molecular orbitals read from record     2100.2  Type=RHF/CANONICAL (state 1.1)

 MP2-F12 correlation treatment (H.-J. Werner, 2006)
 --------------------------------------------------

 Using MP2-F12 with ansatz 3C(FIX)

 Using projected zeroth-order Hamiltonian (+Z)

 FOCKRIB=T FOCKRIC=T FOCKRIP=T CABSP=T CABSA=T CABSK=T CABSF=T GBC=F EBC=F DMAT=T NOFIK=T NOPAO=1 SOLVE=-1  USEPAO=0
 EXCH_A= T EXCH_B= F EXCH_C= F EXCH_P= F
 
 Geminal basis:    OPTFULL  GEM_TYPE=SLATER  BETA=1.0  NGEM=6

 Optimizing Gaussian exponents for each gem_beta

 Geminal optimization for beta= 1.0000
 Weight function:   m=0, omega= 1.4646

 Augmented Hessian optimization of geminal fit. Trust ratio= 0.40000
 Convergence reached after   2 iterations. Final gradient= 8.24D-16, Step= 4.32D-06, Delta= 1.28D-09
 
 Alpha:                 0.19532     0.81920     2.85917     9.50073    35.69989   197.79328
 Coeff:                 0.27070     0.30552     0.18297     0.10986     0.06810     0.04224
 

 Symmetry turned off. Reference energy:       -263.771437316223

 All pairs explicitly correlated. Number of r12-pairs:           78
 
 AO(A)-basis ORBITAL           loaded. Number of functions:     230
 RI(R)-basis CC-PVTZ/JKFIT     loaded. Number of functions:     376
 DF-basis CC-PVTZ/JKFIT        loaded. Number of functions:     376

 Screening thresholds:   THRAO=  1.00D-10  THRMO=  1.00D-09  THRPROD=  1.00D-09
                         THRSW=  1.00D-05  THROV=  1.00D-12  THRF12=   1.00D-08

 CPU time for Fock operators                      1.68 sec
 
 Construction of ABS:
 Smallest eigenvalue of S          2.53E-04  (threshold= 1.00E-08)
 Ratio eigmin/eigmax               1.80E-06  (threshold= 1.00E-09)
 Smallest eigenvalue of S kept     2.53E-04  (threshold= 2.53E-04, 0 functions deleted, 376 kept)
 
 Construction of CABS:
 Smallest eigenvalue of S          2.28E-08  (threshold= 1.00E-08)
 Ratio eigmin/eigmax               2.28E-08  (threshold= 1.00E-09)
 Smallest eigenvalue of S kept     2.28E-08  (threshold= 2.28E-08, 0 functions deleted, 376 kept)
 
 CPU time for CABS singles                        0.30 sec

 CABS-singles contribution of  -0.01595663 patched into reference energy.
 New reference energy        -263.78739395
 
 AO(A)-basis ORBITAL           loaded. Number of functions:     230
 RI(R)-basis CC-PVTZ/JKFIT     loaded. Number of functions:     376
 DF-basis AUG-CC-PVTZ/MP2FIT   loaded. Number of functions:     516

 Screening thresholds:   THRAO=  1.00D-10  THRMO=  1.00D-09  THRPROD=  1.00D-09
                         THRSW=  1.00D-05  THROV=  1.00D-12  THRF12=   1.00D-08

 CPU time for 3-index integral evaluation         3.99 sec
 CPU time for first  half transformation          0.32 sec ( 8800.4 MFLOP/sec)
 CPU time for second half transformation          0.03 sec ( 3320.8 MFLOP/sec)
 CPU time for sorting                             0.16 sec
 CPU time for fitting                             0.09 sec (13348.3 MFLOP/sec)
 CPU time for tilde quantities                    0.25 sec ( 7395.5 MFLOP/sec)
 CPU time for assembly                            1.22 sec (16525.6 MFLOP/sec)
 CPU time for tranop_f12                          1.13 sec (26140.1 MFLOP/sec)
 CPU time for f12 integrals (total)               9.77 sec
 F12-matrices built in  3 passes.
 F12-matrices built in  3 passes.
 F12-matrices built in  3 passes.
 F12-matrices built in  3 passes.
 FC-matrix built in  3 passes.
 CPU time for f12 matrices (total)                0.71 sec

 Diagonal F12 approximation with fixed coefficients:  TSING= 0.500,  TTRIP= 0.250 (scaled by -1/beta)

 DF-MP2-F12 energy corrections:
 ------------------------------
 Approx.                                    Singlet             Triplet             Total
 DF-MP2-F12/3*C(DX,FIX)                -0.097327908677     -0.016954581267     -0.114282489944
 DF-MP2-F12/3*C(FIX)                   -0.079763368967     -0.013434272728     -0.093197641695
 DF-MP2-F12/3C(FIX)                    -0.080132517919     -0.013468090970     -0.093600608889

 DF-MP2-F12 correlation energies:
 --------------------------------
 Approx.                                    Singlet             Triplet             Ecorr            Total Energy
 DF-MP2                                -0.537936798019     -0.343986069162     -0.881922867181   -264.669316812511
 DF-MP2-F12/3*C(DX,FIX)                -0.635264706696     -0.360940650429     -0.996205357125   -264.783599302455
 DF-MP2-F12/3*C(FIX)                   -0.617700166986     -0.357420341890     -0.975120508876   -264.762514454206
 DF-MP2-F12/3C(FIX)                    -0.618069315938     -0.357454160132     -0.975523476070   -264.762917421400

 SCS-DF-MP2 energies (F_SING= 1.20000  F_TRIP= 0.62222  F_PARALLEL= 0.33333):
 ----------------------------------------------------------------------------
 SCS-DF-MP2                            -0.859559933990   -264.646953879321
 SCS-DF-MP2-F12/3*C(DX,FIX)            -0.986902941635   -264.774296886966
 SCS-DF-MP2-F12/3*C(FIX)               -0.963635079781   -264.751029025111
 SCS-DF-MP2-F12/3C(FIX)                -0.964099100985   -264.751493046316

 Symmetry restored.
 Symmetry transformation completed.

 Number of N-1 electron functions:              12
 Number of N-2 electron functions:              78
 Number of singly external CSFs:              1422
 Number of doubly external CSFs:           1668984
 Total number of CSFs:                     1670407

 Pair and operator lists are different

 Length of J-op  integral file:             466.33 MB
 Length of K-op  integral file:             525.76 MB
 Length of 3-ext integral record:             0.00 MB

 Memory could be reduced to 76.19 Mwords without degradation in triples

 Integral transformation finished. Total CPU:   6.07 sec, npass=  1  Memory used:  26.50 MW

 Reference energy:                   -263.78739395

 Adding F12 terms to K(Cij), methodcc=6,  factor=1.0

 ITER.      SQ.NORM     CORR.ENERGY   TOTAL ENERGY   ENERGY CHANGE        DEN1      VAR(S)    VAR(P)  DIIS     TIME
   1      1.20226227    -0.86384620  -264.65124015     0.01809030     0.04668967  0.72D-02  0.55D-02  1  1    23.33
   2      1.21661104    -0.85965788  -264.64705182     0.00418833    -0.02018140  0.88D-04  0.59D-03  2  2    27.13
   3      1.22198390    -0.85976647  -264.64716041    -0.00010859    -0.00234832  0.13D-03  0.32D-04  3  3    30.88
   4      1.22480080    -0.85963747  -264.64703142     0.00012900    -0.00141568  0.77D-05  0.41D-05  4  4    34.69
   5      1.22583542    -0.85960018  -264.64699413     0.00003729    -0.00036585  0.59D-06  0.29D-06  5  5    38.41
   6      1.22599935    -0.85957324  -264.64696719     0.00002694    -0.00000813  0.44D-07  0.24D-07  6  6    42.27
   7      1.22602991    -0.85957075  -264.64696469     0.00000250    -0.00000636  0.35D-08  0.41D-08  6  4    46.10
   8      1.22603082    -0.85957020  -264.64696415     0.00000055     0.00000180  0.44D-09  0.31D-09  6  1    49.93
   9      1.22603145    -0.85957027  -264.64696422    -0.00000007     0.00000061  0.42D-10  0.28D-10  6  2    53.49

 Norm of t1 vector:      0.10636912      S-energy:     0.00000130      T1 diagnostic:  0.01535306
                                                                       D1 diagnostic:  0.04543839

 Adding energy correction from Wij-K(Fij), methodcc=6  factor=1.0
 
  CCSD correlation energy              -0.859570274413
  MP2-F12 correction (uncoupled)       -0.092440505123
  C*T doubles correction               -0.001472134989
  f12b correction                       0.015407118960


 Total CPU time for triples:    107.73 sec


 RESULTS
 =======

  Reference energy                   -263.771437316223
  F12 singles correction               -0.015956629107

 F12 singles corrections added to reference energy

  New reference energy               -263.787393945330

  F12a singlet correction              -0.080331276176
  F12a triplet correction              -0.013581363936
  F12a total correction                -0.093912640112

 F12a corrections for ansatz F12/3C(FIX) added to CCSD energy
 
  CCSD-F12a singlet pair energy        -0.641905742895
  CCSD-F12a triplet pair energy        -0.311578473330
  CCSD-F12a correlation energy         -0.953482914525

  Triples (T) contribution             -0.037853374336
  Total correlation energy             -0.991336288860

  CCSD-F12a total energy             -264.740876859855
  CCSD[T]-F12a energy                -264.781277828767
  CCSD-T-F12a energy                 -264.777794566159
 !CCSD(T)-F12a total energy          -264.778730234191

 F12b corrections for ansatz F12/3C(FIX) added to CCSD(T)-F12a energy

  CCSD-F12b singlet pair energy        -0.627726789904
  CCSD-F12b triplet pair energy        -0.310350307361
  CCSD-F12b correlation energy         -0.938075795565

  Triples (T) contribution             -0.037853374335
  Total correlation energy             -0.975929169901

  CCSD-F12b total energy             -264.725469740895
  CCSD[T]-F12b energy                -264.765870709807
  CCSD-T-F12b energy                 -264.762387447199
 !CCSD(T)-F12b total energy          -264.763323115231

 Timing summary (sec):

 STEP                 CPU(USER)    SYS     CPU(TOT)    WALL
 Transformation          6.10      0.60      6.70      6.70
 CCSD iterations        34.23      1.86     36.09     36.08
 Triples               107.73      2.26    109.99    109.95
 MP2-F12                13.16      1.34     14.50     14.51
 F12b energy             3.20      0.04      3.24      3.23

 Program statistics:

 Available memory in ccsd:                99998934
 Min. memory needed in ccsd:               4419579
 Max. memory used in ccsd:                 5922321
 Max. memory used in cckext:               6231049 (10 integral passes)



 **********************************************************************************************************************************
 DATASETS  * FILE   NREC   LENGTH (MB)   RECORD NAMES
              1      20      268.24       500      610      700      900      950      970     1000      129      960     1100   
                                          VAR    BASINP    GEOM    SYMINP    ZMAT    AOBASIS   BASIS     P2S    ABASIS      S 
                                         1400     1410     1200     1210     1080     1600     1650     1700      960(1)  1380   
                                           T        V       H0       H01     AOSYM     SMH    MOLCAS    OPER    ABASIS    JKOP   

              2       5        1.51       700     1000     2100     7360     7350   
                                         GEOM     BASIS     RHF    F12ABS    EF12   

 PROGRAMS   *        TOTAL   CCSD(T)        HF       INT
 CPU TIMES  *       179.87    164.50      5.94      9.32
 REAL TIME  *       188.18 SEC
 DISK USED  *         3.11 GB      
 SF USED    *         1.52 GB      
 GA USED    *         2.40 MB       (max)       0.00 MB       (current)
 **********************************************************************************************************************************

     CCSD(T)-F12        HF-SCF  
   -264.76332312   -263.77143732
 **********************************************************************************************************************************
 Variable memory released
