
 Primary working directories    : /scratch/kee
 Secondary working directories  : /scratch/kee
 Wavefunction directory         : /home/kee/wfu/
 Main file repository           : /scratch/kee/

 ARCHNAME  : Linux/x86_64
 FC        : /opt/intel/composer_xe_2015.0.090/bin/intel64/ifort
 FCVERSION : 15.0.0
 BLASLIB   : -L/opt/intel/mkl/lib/intel64 -lmkl_intel_ilp64 -lmkl_sequential -lmkl_core
 id        : emory

 Nodes     nprocs
 node23       3
 Number of processes for MPI-2 version of Molpro:   nprocs(total)=    4   nprocs(compute)=    3   nprocs(helper)=    1
 ga_uses_ma=false, calling ma_init with nominal heap.
 GA-space will be limited to   8.0 MW (determined by -G option)

 Using customized tuning parameters: mindgm=7; mindgv=32; mindgc=1; mindgr=1; noblas=0; mincuda=1000; minvec=7
 default implementation of scratch files=sf  

 ***,co2h2o
 memory,100,m
 basis avtz
 geomtype = xyz
 geometry = {
 6
       0.00000000
 O     0.02747900    1.16001200    0.00000000
 O    -0.00936500   -1.16396300    0.00000000
 O     2.77534446   -0.01400517    0.00000000
 H     3.16443946    0.42726883    0.75746400
 H     3.16443946    0.42726883   -0.75746400
 C     0.02536600   -0.00312200    0.00000000
 }
 hf
 ccsd(t)-f12
 ---

 Variables initialized (665), CPU time= 0.01 sec
 Commands  initialized (462), CPU time= 0.01 sec, 486 directives.
 Default parameters read. Elapsed time= 0.06 sec

 Checking input...
 Passed
1


                                         ***  PROGRAM SYSTEM MOLPRO  ***
                         Copyright, University College Cardiff Consultants Limited, 2008

                                    Version 2010.1 linked 9 Dec 2014 15:06:28 


 **********************************************************************************************************************************
 LABEL *   co2h2o                                                                        
 Linux-2.6.32-504.el6.x86_64/node23(x86_64) 64 bit mpp version                           DATE: 14-Dec-16          TIME: 23:40:56  
 **********************************************************************************************************************************

 Patch level:      19
 **********************************************************************************************************************************

 Variable memory set to  100000000 words,  buffer space   230000 words

 SETTING BASIS          =    AVTZ
 SETTING GEOMTYPE       =    XYZ

Geometry recognized as XYZ



 Recomputing integrals since basis changed


 Using spherical harmonics

 Library entry O      S aug-cc-pVTZ          selected for orbital group  1
 Library entry O      P aug-cc-pVTZ          selected for orbital group  1
 Library entry O      D aug-cc-pVTZ          selected for orbital group  1
 Library entry O      F aug-cc-pVTZ          selected for orbital group  1
 Library entry H      S aug-cc-pVTZ          selected for orbital group  2
 Library entry H      P aug-cc-pVTZ          selected for orbital group  2
 Library entry H      D aug-cc-pVTZ          selected for orbital group  2
 Library entry C      S aug-cc-pVTZ          selected for orbital group  3
 Library entry C      P aug-cc-pVTZ          selected for orbital group  3
 Library entry C      D aug-cc-pVTZ          selected for orbital group  3
 Library entry C      F aug-cc-pVTZ          selected for orbital group  3

1PROGRAM * SEWARD (Integral evaluation for generally contracted gaussian basis sets)     Author: Roland Lindh, 1990

 Geometry written to block  1 of record 700


 Point group  Cs  



 ATOMIC COORDINATES

 NR  ATOM    CHARGE       X              Y              Z

   1  O       8.00    0.051927784    2.192104989    0.000000000
   2  O       8.00   -0.017697285   -2.199571297    0.000000000
   3  O       8.00    5.244640950   -0.026465936    0.000000000
   4  H       1.00    5.979923939    0.807421073    1.431399514
   5  H       1.00    5.979923939    0.807421073   -1.431399514
   6  C       6.00    0.047934793   -0.005899725    0.000000000

 Bond lengths in Bohr (Angstrom)

 1-6  2.198008341  2-6  2.194653170  3-4  1.812432947  3-5  1.812432947
     (1.163135919)     (1.161360439)     (0.959098208)     (0.959098208)

 Bond angles

  1-6-2  178.39037465   4-3-5  104.32746287

 NUCLEAR CHARGE:                   32
 NUMBER OF PRIMITIVE AOS:         322
 NUMBER OF SYMMETRY AOS:          282
 NUMBER OF CONTRACTIONS:          230   ( 143A'  +  87A"  )
 NUMBER OF CORE ORBITALS:           4   (   4A'  +   0A"  )
 NUMBER OF VALENCE ORBITALS:       18   (  13A'  +   5A"  )


 NUCLEAR REPULSION ENERGY  106.10930532


 Eigenvalues of metric

         1 0.237E-03 0.316E-03 0.335E-03 0.782E-03 0.868E-03 0.943E-03 0.170E-02 0.182E-02
         2 0.370E-03 0.148E-02 0.304E-02 0.344E-02 0.436E-02 0.613E-02 0.851E-02 0.109E-01


 Contracted 2-electron integrals neglected if value below      1.0D-11
 AO integral compression algorithm  1   Integral accuracy      1.0D-11

     766.771 MB (compressed) written to integral file ( 45.2%)

     Node minimum: 244.842 MB, node maximum: 267.911 MB


 NUMBER OF SORTED TWO-ELECTRON INTEGRALS:   59530350.     BUFFER LENGTH:  32768
 NUMBER OF SEGMENTS:   4  SEGMENT LENGTH:   15999984      RECORD LENGTH: 524288

 Memory used in sort:      16.56 MW

 SORT1 READ   212043035. AND WROTE    55267657. INTEGRALS IN    160 RECORDS. CPU TIME:     4.28 SEC, REAL TIME:     4.92 SEC
 SORT2 READ   166439128. AND WROTE   178576926. INTEGRALS IN   2907 RECORDS. CPU TIME:     1.16 SEC, REAL TIME:     1.71 SEC

 Node minimum:    59520934.  Node maximum:    59530350. integrals

 OPERATOR DM      FOR CENTER  0  COORDINATES:    0.000000    0.000000    0.000000


 **********************************************************************************************************************************
 DATASETS  * FILE   NREC   LENGTH (MB)   RECORD NAMES
              1      18        3.71       500      610      700      900      950      970     1000      129      960     1100   
                                          VAR    BASINP    GEOM    SYMINP    ZMAT    AOBASIS   BASIS     P2S    ABASIS      S 
                                         1400     1410     1200     1210     1080     1600     1650     1700   
                                           T        V       H0       H01     AOSYM     SMH    MOLCAS    OPER   

 PROGRAMS   *        TOTAL       INT
 CPU TIMES  *         9.70      9.59
 REAL TIME  *        11.13 SEC
 DISK USED  *         2.74 GB      
 GA USED    *         0.00 MB       (max)       0.00 MB       (current)
 **********************************************************************************************************************************

1PROGRAM * RHF-SCF (CLOSED SHELL)       Authors: W. Meyer, H.-J. Werner


 NUMBER OF ELECTRONS:      16+   16-
 CONVERGENCE THRESHOLDS:    1.00E-05 (Density)    1.00E-07 (Energy)
 MAX. NUMBER OF ITERATIONS:       60
 INTERPOLATION TYPE:            DIIS
 INTERPOLATION STEPS:              2 (START)      1 (STEP)
 LEVEL SHIFTS:                  0.00 (CLOSED)  0.00 (OPEN) 



 Orbital guess generated from atomic densities. Full valence occupancy:   17   5

 Molecular orbital dump at record        2100.2

 Initial alpha occupancy:  13   3
 Initial beta  occupancy:  13   3
 Wave function symmetry:    1

 ITERATION    DDIFF          GRAD             ENERGY        2-EL.EN.            DIPOLE MOMENTS         DIIS
    1      0.000D+00      0.000D+00      -263.66586283    408.421577    0.84649    0.84377    0.00000    0
    2      0.000D+00      0.631D-02      -263.72963000    403.854257    0.64534    0.45379    0.00000    1
    3      0.102D-01      0.421D-02      -263.76976901    406.268837    0.67737    0.56249    0.00000    2
    4      0.412D-02      0.418D-03      -263.77027780    406.092102    0.67489    0.55748    0.00000    3
    5      0.504D-03      0.128D-03      -263.77033949    406.076572    0.67150    0.55999    0.00000    4
    6      0.193D-03      0.530D-04      -263.77034810    406.093761    0.67171    0.55669    0.00000    5
    7      0.653D-04      0.132D-04      -263.77034895    406.086492    0.67148    0.55796    0.00000    6
    8      0.227D-04      0.484D-05      -263.77034903    406.086313    0.67144    0.55714    0.00000    7
    9      0.652D-05      0.237D-05      -263.77034904    406.087109    0.67147    0.55749    0.00000    0

 Final occupancy:  13   3

 !RHF STATE 1.1 Energy               -263.770349040908
 Nuclear energy                       106.10930532
 One-electron energy                 -572.92320895
 Two-electron energy                  203.04355459
 Virial quotient                       -1.00173273
 !RHF STATE 1.1 Dipole moment           0.67146504     0.55748598     0.00000000
 Dipole moment /Debye                   1.70658212     1.41689522     0.00000000

 Orbital energies:

         1.1          2.1          3.1          4.1          5.1          6.1          7.1          8.1          9.1         10.1
    -20.632149   -20.631579   -20.578473   -11.442683    -1.510395    -1.457451    -1.365941    -0.781982    -0.724405    -0.697839

        11.1         12.1         13.1         14.1         15.1
     -0.597647    -0.531358    -0.516901     0.025502     0.065014

         1.2          2.2          3.2          4.2          5.2
     -0.729402    -0.694876    -0.524967     0.045579     0.090885


 **********************************************************************************************************************************
 DATASETS  * FILE   NREC   LENGTH (MB)   RECORD NAMES
              1      18        3.72       500      610      700      900      950      970     1000      129      960     1100   
                                          VAR    BASINP    GEOM    SYMINP    ZMAT    AOBASIS   BASIS     P2S    ABASIS      S 
                                         1400     1410     1200     1210     1080     1600     1650     1700   
                                           T        V       H0       H01     AOSYM     SMH    MOLCAS    OPER   

              2       3        0.94       700     1000     2100   
                                         GEOM     BASIS     RHF  

 PROGRAMS   *        TOTAL        HF       INT
 CPU TIMES  *        14.14      4.44      9.59
 REAL TIME  *        16.00 SEC
 DISK USED  *         2.76 GB      
 SF USED    *         0.11 MB      
 GA USED    *         0.00 MB       (max)       0.00 MB       (current)
 **********************************************************************************************************************************


1PROGRAM * CCSD (Closed-shell coupled cluster)     Authors: C. Hampel, H.-J. Werner, 1991, M. Deegan, P.J. Knowles, 1992

                                  CCSD-F12 implementation by  H.-J. Werner, 2007

                   Density fitting integral evaluation by F.R. Manby, 2003,2007, G. Knizia, 2010

 Basis set CC-PVTZ/JKFIT generated.      Number of basis functions:   376 
 Basis set AUG-CC-PVTZ/MP2FIT generated. Number of basis functions:   516 

 Convergence thresholds:  THRVAR = 1.00D-08  THRDEN = 1.00D-06

 CCSD(T)     terms to be evaluated (factor= 1.000)


 Number of core orbitals:           4 (   4   0 )
 Number of closed-shell orbitals:  12 (   9   3 )
 Number of external orbitals:     214 ( 130  84 )

 Molecular orbitals read from record     2100.2  Type=RHF/CANONICAL (state 1.1)

 MP2-F12 correlation treatment (H.-J. Werner, 2006)
 --------------------------------------------------

 Using MP2-F12 with ansatz 3C(FIX)

 Using projected zeroth-order Hamiltonian (+Z)

 FOCKRIB=T FOCKRIC=T FOCKRIP=T CABSP=T CABSA=T CABSK=T CABSF=T GBC=F EBC=F DMAT=T NOFIK=T NOPAO=1 SOLVE=-1  USEPAO=0
 EXCH_A= T EXCH_B= F EXCH_C= F EXCH_P= F
 
 Geminal basis:    OPTFULL  GEM_TYPE=SLATER  BETA=1.0  NGEM=6

 Optimizing Gaussian exponents for each gem_beta

 Geminal optimization for beta= 1.0000
 Weight function:   m=0, omega= 1.4646

 Augmented Hessian optimization of geminal fit. Trust ratio= 0.40000
 Convergence reached after   2 iterations. Final gradient= 8.24D-16, Step= 4.32D-06, Delta= 1.28D-09
 
 Alpha:                 0.19532     0.81920     2.85917     9.50073    35.69989   197.79328
 Coeff:                 0.27070     0.30552     0.18297     0.10986     0.06810     0.04224
 

 Symmetry turned off. Reference energy:       -263.770349040907

 All pairs explicitly correlated. Number of r12-pairs:           78
 
 AO(A)-basis ORBITAL           loaded. Number of functions:     230
 RI(R)-basis CC-PVTZ/JKFIT     loaded. Number of functions:     376
 DF-basis CC-PVTZ/JKFIT        loaded. Number of functions:     376

 Screening thresholds:   THRAO=  1.00D-10  THRMO=  1.00D-09  THRPROD=  1.00D-09
                         THRSW=  1.00D-05  THROV=  1.00D-12  THRF12=   1.00D-08

 CPU time for Fock operators                      1.05 sec
 
 Construction of ABS:
 Smallest eigenvalue of S          2.49E-04  (threshold= 1.00E-08)
 Ratio eigmin/eigmax               1.77E-06  (threshold= 1.00E-09)
 Smallest eigenvalue of S kept     2.49E-04  (threshold= 2.49E-04, 0 functions deleted, 376 kept)
 
 Construction of CABS:
 Smallest eigenvalue of S          2.27E-08  (threshold= 1.00E-08)
 Ratio eigmin/eigmax               2.27E-08  (threshold= 1.00E-09)
 Smallest eigenvalue of S kept     2.27E-08  (threshold= 2.27E-08, 0 functions deleted, 376 kept)
 
 CPU time for CABS singles                        0.18 sec

 CABS-singles contribution of  -0.01595358 patched into reference energy.
 New reference energy        -263.78630262
 
 AO(A)-basis ORBITAL           loaded. Number of functions:     230
 RI(R)-basis CC-PVTZ/JKFIT     loaded. Number of functions:     376
 DF-basis AUG-CC-PVTZ/MP2FIT   loaded. Number of functions:     516

 Screening thresholds:   THRAO=  1.00D-10  THRMO=  1.00D-09  THRPROD=  1.00D-09
                         THRSW=  1.00D-05  THROV=  1.00D-12  THRF12=   1.00D-08

 CPU time for 3-index integral evaluation         3.32 sec
 CPU time for first  half transformation          0.31 sec ( 9834.0 MFLOP/sec)
 CPU time for second half transformation          0.03 sec ( 3747.7 MFLOP/sec)
 CPU time for sorting                             0.18 sec
 CPU time for fitting                             0.05 sec (27861.0 MFLOP/sec)
 CPU time for tilde quantities                    0.08 sec (23111.0 MFLOP/sec)
 CPU time for assembly                            0.91 sec (25958.8 MFLOP/sec)
 CPU time for tranop_f12                          0.99 sec (30341.8 MFLOP/sec)
 CPU time for f12 integrals (total)               8.13 sec
 F12-matrices built in  3 passes.
 F12-matrices built in  3 passes.
 F12-matrices built in  3 passes.
 F12-matrices built in  3 passes.
 FC-matrix built in  3 passes.
 CPU time for f12 matrices (total)                0.61 sec

 Diagonal F12 approximation with fixed coefficients:  TSING= 0.500,  TTRIP= 0.250 (scaled by -1/beta)

 DF-MP2-F12 energy corrections:
 ------------------------------
 Approx.                                    Singlet             Triplet             Total
 DF-MP2-F12/3*C(DX,FIX)                -0.097325983365     -0.016993452767     -0.114319436133
 DF-MP2-F12/3*C(FIX)                   -0.079748543297     -0.013477109581     -0.093225652878
 DF-MP2-F12/3C(FIX)                    -0.080119875318     -0.013516398136     -0.093636273454

 DF-MP2-F12 correlation energies:
 --------------------------------
 Approx.                                    Singlet             Triplet             Ecorr            Total Energy
 DF-MP2                                -0.538050130555     -0.344774446113     -0.882824576669   -264.669127198017
 DF-MP2-F12/3*C(DX,FIX)                -0.635376113920     -0.361767898881     -0.997144012801   -264.783446634150
 DF-MP2-F12/3*C(FIX)                   -0.617798673852     -0.358251555695     -0.976050229547   -264.762352850896
 DF-MP2-F12/3C(FIX)                    -0.618170005874     -0.358290844249     -0.976460850123   -264.762763471471

 SCS-DF-MP2 energies (F_SING= 1.20000  F_TRIP= 0.62222  F_PARALLEL= 0.33333):
 ----------------------------------------------------------------------------
 SCS-DF-MP2                            -0.860186478692   -264.646489100041
 SCS-DF-MP2-F12/3*C(DX,FIX)            -0.987551362675   -264.773853984024
 SCS-DF-MP2-F12/3*C(FIX)               -0.964270487721   -264.750573109070
 SCS-DF-MP2-F12/3C(FIX)                -0.964740532359   -264.751043153708

 Symmetry restored.
 Symmetry transformation completed.

 Number of N-1 electron functions:              12
 Number of N-2 electron functions:              78
 Number of singly external CSFs:              1422
 Number of doubly external CSFs:           1668984
 Total number of CSFs:                     1670407

 Pair and operator lists are different

 Length of J-op  integral file:             466.33 MB
 Length of K-op  integral file:             525.76 MB
 Length of 3-ext integral record:             0.00 MB

 Memory could be reduced to 76.19 Mwords without degradation in triples

 Integral transformation finished. Total CPU:   4.72 sec, npass=  1  Memory used:  26.50 MW

 Reference energy:                   -263.78630262

 Adding F12 terms to K(Cij), methodcc=6,  factor=1.0

 ITER.      SQ.NORM     CORR.ENERGY   TOTAL ENERGY   ENERGY CHANGE        DEN1      VAR(S)    VAR(P)  DIIS     TIME
   1      1.20221303    -0.86469693  -264.65099955     0.01813906     0.04672680  0.72D-02  0.55D-02  1  1    18.17
   2      1.21658005    -0.86052079  -264.64682341     0.00417615    -0.02021582  0.88D-04  0.59D-03  2  2    21.83
   3      1.22194153    -0.86063599  -264.64693861    -0.00011520    -0.00231938  0.13D-03  0.32D-04  3  3    24.92
   4      1.22476380    -0.86050547  -264.64680809     0.00013052    -0.00141581  0.79D-05  0.41D-05  4  4    27.97
   5      1.22580386    -0.86046848  -264.64677110     0.00003699    -0.00036576  0.62D-06  0.29D-06  5  5    31.06
   6      1.22597017    -0.86044143  -264.64674405     0.00002705    -0.00000811  0.47D-07  0.26D-07  6  6    34.13
   7      1.22600302    -0.86043851  -264.64674113     0.00000292    -0.00000685  0.43D-08  0.41D-08  6  2    37.24
   8      1.22600382    -0.86043823  -264.64674085     0.00000028     0.00000202  0.48D-09  0.35D-09  6  1    40.19
   9      1.22600449    -0.86043830  -264.64674092    -0.00000007     0.00000069  0.59D-10  0.29D-10  6  4    43.37

 Norm of t1 vector:      0.10669424      S-energy:     0.00000153      T1 diagnostic:  0.01539999
                                                                       D1 diagnostic:  0.04590521

 Adding energy correction from Wij-K(Fij), methodcc=6  factor=1.0
 
  CCSD correlation energy              -0.860438297003
  MP2-F12 correction (uncoupled)       -0.092475080520
  C*T doubles correction               -0.001472540053
  f12b correction                       0.015413196914


 Total CPU time for triples:     78.27 sec


 RESULTS
 =======

  Reference energy                   -263.770349040908
  F12 singles correction               -0.015953580441

 F12 singles corrections added to reference energy

  New reference energy               -263.786302621349

  F12a singlet correction              -0.080320656936
  F12a triplet correction              -0.013626963636
  F12a total correction                -0.093947620573

 F12a corrections for ansatz F12/3C(FIX) added to CCSD energy
 
  CCSD-F12a singlet pair energy        -0.641882605783
  CCSD-F12a triplet pair energy        -0.312504837366
  CCSD-F12a correlation energy         -0.954385917576

  Triples (T) contribution             -0.038009706293
  Total correlation energy             -0.992395623869

  CCSD-F12a total energy             -264.740688538925
  CCSD[T]-F12a energy                -264.781250035285
  CCSD-T-F12a energy                 -264.777763918265
 !CCSD(T)-F12a total energy          -264.778698245218

 F12b corrections for ansatz F12/3C(FIX) added to CCSD(T)-F12a energy

  CCSD-F12b singlet pair energy        -0.627703198851
  CCSD-F12b triplet pair energy        -0.311271047384
  CCSD-F12b correlation energy         -0.938972720662

  Triples (T) contribution             -0.038009706293
  Total correlation energy             -0.976982426955

  CCSD-F12b total energy             -264.725275342011
  CCSD[T]-F12b energy                -264.765836838371
  CCSD-T-F12b energy                 -264.762350721351
 !CCSD(T)-F12b total energy          -264.763285048304

 Timing summary (sec):

 STEP                 CPU(USER)    SYS     CPU(TOT)    WALL
 Transformation          4.75      0.61      5.36      5.36
 CCSD iterations        28.19      1.80     29.99     30.34
 Triples                78.27      1.67     79.94     79.91
 MP2-F12                10.45      1.41     11.86     11.86
 F12b energy             2.34      0.04      2.38      2.40

 Program statistics:

 Available memory in ccsd:                99998934
 Min. memory needed in ccsd:               4419579
 Max. memory used in ccsd:                 5922321
 Max. memory used in cckext:               6231049 (10 integral passes)



 **********************************************************************************************************************************
 DATASETS  * FILE   NREC   LENGTH (MB)   RECORD NAMES
              1      20      268.24       500      610      700      900      950      970     1000      129      960     1100   
                                          VAR    BASINP    GEOM    SYMINP    ZMAT    AOBASIS   BASIS     P2S    ABASIS      S 
                                         1400     1410     1200     1210     1080     1600     1650     1700      960(1)  1380   
                                           T        V       H0       H01     AOSYM     SMH    MOLCAS    OPER    ABASIS    JKOP   

              2       5        1.51       700     1000     2100     7360     7350   
                                         GEOM     BASIS     RHF    F12ABS    EF12   

 PROGRAMS   *        TOTAL   CCSD(T)        HF       INT
 CPU TIMES  *       138.20    124.06      4.44      9.59
 REAL TIME  *       146.19 SEC
 DISK USED  *         3.20 GB      
 SF USED    *         1.52 GB      
 GA USED    *         2.40 MB       (max)       0.00 MB       (current)
 **********************************************************************************************************************************

     CCSD(T)-F12        HF-SCF  
   -264.76328505   -263.77034904
 **********************************************************************************************************************************
 Variable memory released
