
 Primary working directories    : /scratch/kee
 Secondary working directories  : /scratch/kee
 Wavefunction directory         : /home/kee/wfu/
 Main file repository           : /scratch/kee/

 ARCHNAME  : Linux/x86_64
 FC        : /opt/intel/composer_xe_2015.0.090/bin/intel64/ifort
 FCVERSION : 15.0.0
 BLASLIB   : -L/opt/intel/mkl/lib/intel64 -lmkl_intel_ilp64 -lmkl_sequential -lmkl_core
 id        : emory

 Nodes     nprocs
 node23       3
 Number of processes for MPI-2 version of Molpro:   nprocs(total)=    4   nprocs(compute)=    3   nprocs(helper)=    1
 ga_uses_ma=false, calling ma_init with nominal heap.
 GA-space will be limited to   8.0 MW (determined by -G option)

 Using customized tuning parameters: mindgm=7; mindgv=32; mindgc=1; mindgr=1; noblas=0; mincuda=1000; minvec=7
 default implementation of scratch files=sf  

 ***,co2h2o
 memory,100,m
 basis avtz
 geomtype = xyz
 geometry = {
 6
       0.00000000
 O     0.02747900    1.16001200    0.00000000
 O    -0.00936500   -1.16396300    0.00000000
 O     2.87534368   -0.01440093    0.00000000
 H     3.26443868    0.42687307    0.75746400
 H     3.26443868    0.42687307   -0.75746400
 C     0.02536600   -0.00312200    0.00000000
 }
 hf
 ccsd(t)-f12
 ---

 Variables initialized (665), CPU time= 0.00 sec
 Commands  initialized (462), CPU time= 0.01 sec, 486 directives.
 Default parameters read. Elapsed time= 0.04 sec

 Checking input...
 Passed
1


                                         ***  PROGRAM SYSTEM MOLPRO  ***
                         Copyright, University College Cardiff Consultants Limited, 2008

                                    Version 2010.1 linked 9 Dec 2014 15:06:28 


 **********************************************************************************************************************************
 LABEL *   co2h2o                                                                        
 Linux-2.6.32-504.el6.x86_64/node23(x86_64) 64 bit mpp version                           DATE: 14-Dec-16          TIME: 23:46:10  
 **********************************************************************************************************************************

 Patch level:      19
 **********************************************************************************************************************************

 Variable memory set to  100000000 words,  buffer space   230000 words

 SETTING BASIS          =    AVTZ
 SETTING GEOMTYPE       =    XYZ

Geometry recognized as XYZ



 Recomputing integrals since basis changed


 Using spherical harmonics

 Library entry O      S aug-cc-pVTZ          selected for orbital group  1
 Library entry O      P aug-cc-pVTZ          selected for orbital group  1
 Library entry O      D aug-cc-pVTZ          selected for orbital group  1
 Library entry O      F aug-cc-pVTZ          selected for orbital group  1
 Library entry H      S aug-cc-pVTZ          selected for orbital group  2
 Library entry H      P aug-cc-pVTZ          selected for orbital group  2
 Library entry H      D aug-cc-pVTZ          selected for orbital group  2
 Library entry C      S aug-cc-pVTZ          selected for orbital group  3
 Library entry C      P aug-cc-pVTZ          selected for orbital group  3
 Library entry C      D aug-cc-pVTZ          selected for orbital group  3
 Library entry C      F aug-cc-pVTZ          selected for orbital group  3

1PROGRAM * SEWARD (Integral evaluation for generally contracted gaussian basis sets)     Author: Roland Lindh, 1990

 Geometry written to block  1 of record 700


 Point group  Cs  



 ATOMIC COORDINATES

 NR  ATOM    CHARGE       X              Y              Z

   1  O       8.00    0.051927784    2.192104989    0.000000000
   2  O       8.00   -0.017697285   -2.199571297    0.000000000
   3  O       8.00    5.433612089   -0.027213814    0.000000000
   4  H       1.00    6.168895078    0.806673195    1.431399514
   5  H       1.00    6.168895078    0.806673195   -1.431399514
   6  C       6.00    0.047934793   -0.005899725    0.000000000

 Bond lengths in Bohr (Angstrom)

 1-6  2.198008341  2-6  2.194653170  3-4  1.812432947  3-5  1.812432947
     (1.163135919)     (1.161360439)     (0.959098208)     (0.959098208)

 Bond angles

  1-6-2  178.39037465   4-3-5  104.32746287

 NUCLEAR CHARGE:                   32
 NUMBER OF PRIMITIVE AOS:         322
 NUMBER OF SYMMETRY AOS:          282
 NUMBER OF CONTRACTIONS:          230   ( 143A'  +  87A"  )
 NUMBER OF CORE ORBITALS:           4   (   4A'  +   0A"  )
 NUMBER OF VALENCE ORBITALS:       18   (  13A'  +   5A"  )


 NUCLEAR REPULSION ENERGY  104.92811656


 Eigenvalues of metric

         1 0.246E-03 0.324E-03 0.338E-03 0.799E-03 0.876E-03 0.984E-03 0.171E-02 0.192E-02
         2 0.375E-03 0.151E-02 0.306E-02 0.344E-02 0.441E-02 0.615E-02 0.868E-02 0.110E-01


 Contracted 2-electron integrals neglected if value below      1.0D-11
 AO integral compression algorithm  1   Integral accuracy      1.0D-11

     753.664 MB (compressed) written to integral file ( 44.4%)

     Node minimum: 225.968 MB, node maximum: 265.028 MB


 NUMBER OF SORTED TWO-ELECTRON INTEGRALS:   59530350.     BUFFER LENGTH:  32768
 NUMBER OF SEGMENTS:   4  SEGMENT LENGTH:   15999984      RECORD LENGTH: 524288

 Memory used in sort:      16.56 MW

 SORT1 READ   212043035. AND WROTE    54683484. INTEGRALS IN    158 RECORDS. CPU TIME:     4.17 SEC, REAL TIME:     4.79 SEC
 SORT2 READ   164741899. AND WROTE   178576926. INTEGRALS IN   3033 RECORDS. CPU TIME:     1.23 SEC, REAL TIME:     1.76 SEC

 Node minimum:    59520934.  Node maximum:    59530350. integrals

 OPERATOR DM      FOR CENTER  0  COORDINATES:    0.000000    0.000000    0.000000


 **********************************************************************************************************************************
 DATASETS  * FILE   NREC   LENGTH (MB)   RECORD NAMES
              1      18        3.71       500      610      700      900      950      970     1000      129      960     1100   
                                          VAR    BASINP    GEOM    SYMINP    ZMAT    AOBASIS   BASIS     P2S    ABASIS      S 
                                         1400     1410     1200     1210     1080     1600     1650     1700   
                                           T        V       H0       H01     AOSYM     SMH    MOLCAS    OPER   

 PROGRAMS   *        TOTAL       INT
 CPU TIMES  *         9.53      9.46
 REAL TIME  *        11.50 SEC
 DISK USED  *         2.72 GB      
 GA USED    *         0.00 MB       (max)       0.00 MB       (current)
 **********************************************************************************************************************************

1PROGRAM * RHF-SCF (CLOSED SHELL)       Authors: W. Meyer, H.-J. Werner


 NUMBER OF ELECTRONS:      16+   16-
 CONVERGENCE THRESHOLDS:    1.00E-05 (Density)    1.00E-07 (Energy)
 MAX. NUMBER OF ITERATIONS:       60
 INTERPOLATION TYPE:            DIIS
 INTERPOLATION STEPS:              2 (START)      1 (STEP)
 LEVEL SHIFTS:                  0.00 (CLOSED)  0.00 (OPEN) 



 Orbital guess generated from atomic densities. Full valence occupancy:   17   5

 Molecular orbital dump at record        2100.2

 Initial alpha occupancy:  13   3
 Initial beta  occupancy:  13   3
 Wave function symmetry:    1

 ITERATION    DDIFF          GRAD             ENERGY        2-EL.EN.            DIPOLE MOMENTS         DIIS
    1      0.000D+00      0.000D+00      -263.66602189    406.014284    0.83569    0.84371    0.00000    0
    2      0.000D+00      0.632D-02      -263.72989694    401.437861    0.62606    0.45533    0.00000    1
    3      0.102D-01      0.422D-02      -263.77036534    403.875457    0.66370    0.56291    0.00000    2
    4      0.414D-02      0.416D-03      -263.77087045    403.692893    0.66210    0.55852    0.00000    3
    5      0.502D-03      0.126D-03      -263.77093132    403.680007    0.65893    0.56062    0.00000    4
    6      0.191D-03      0.524D-04      -263.77093973    403.696861    0.65922    0.55756    0.00000    5
    7      0.648D-04      0.131D-04      -263.77094056    403.689441    0.65900    0.55876    0.00000    6
    8      0.224D-04      0.467D-05      -263.77094064    403.689362    0.65897    0.55796    0.00000    7
    9      0.640D-05      0.238D-05      -263.77094065    403.690115    0.65899    0.55832    0.00000    0

 Final occupancy:  13   3

 !RHF STATE 1.1 Energy               -263.770940651735
 Nuclear energy                       104.92811656
 One-electron energy                 -570.54411477
 Two-electron energy                  201.84505756
 Virial quotient                       -1.00176852
 !RHF STATE 1.1 Dipole moment           0.65898794     0.55832325     0.00000000
 Dipole moment /Debye                   1.67487057     1.41902322     0.00000000

 Orbital energies:

         1.1          2.1          3.1          4.1          5.1          6.1          7.1          8.1          9.1         10.1
    -20.633761   -20.633200   -20.577829   -11.443904    -1.511722    -1.458802    -1.364722    -0.783203    -0.725643    -0.697918

        11.1         12.1         13.1         14.1         15.1
     -0.596957    -0.530601    -0.517981     0.025734     0.064474

         1.2          2.2          3.2          4.2          5.2
     -0.728202    -0.696254    -0.526302     0.045666     0.090346


 **********************************************************************************************************************************
 DATASETS  * FILE   NREC   LENGTH (MB)   RECORD NAMES
              1      18        3.72       500      610      700      900      950      970     1000      129      960     1100   
                                          VAR    BASINP    GEOM    SYMINP    ZMAT    AOBASIS   BASIS     P2S    ABASIS      S 
                                         1400     1410     1200     1210     1080     1600     1650     1700   
                                           T        V       H0       H01     AOSYM     SMH    MOLCAS    OPER   

              2       3        0.94       700     1000     2100   
                                         GEOM     BASIS     RHF  

 PROGRAMS   *        TOTAL        HF       INT
 CPU TIMES  *        13.97      4.44      9.46
 REAL TIME  *        16.34 SEC
 DISK USED  *         2.74 GB      
 SF USED    *         0.11 MB      
 GA USED    *         0.00 MB       (max)       0.00 MB       (current)
 **********************************************************************************************************************************


1PROGRAM * CCSD (Closed-shell coupled cluster)     Authors: C. Hampel, H.-J. Werner, 1991, M. Deegan, P.J. Knowles, 1992

                                  CCSD-F12 implementation by  H.-J. Werner, 2007

                   Density fitting integral evaluation by F.R. Manby, 2003,2007, G. Knizia, 2010

 Basis set CC-PVTZ/JKFIT generated.      Number of basis functions:   376 
 Basis set AUG-CC-PVTZ/MP2FIT generated. Number of basis functions:   516 

 Convergence thresholds:  THRVAR = 1.00D-08  THRDEN = 1.00D-06

 CCSD(T)     terms to be evaluated (factor= 1.000)


 Number of core orbitals:           4 (   4   0 )
 Number of closed-shell orbitals:  12 (   9   3 )
 Number of external orbitals:     214 ( 130  84 )

 Molecular orbitals read from record     2100.2  Type=RHF/CANONICAL (state 1.1)

 MP2-F12 correlation treatment (H.-J. Werner, 2006)
 --------------------------------------------------

 Using MP2-F12 with ansatz 3C(FIX)

 Using projected zeroth-order Hamiltonian (+Z)

 FOCKRIB=T FOCKRIC=T FOCKRIP=T CABSP=T CABSA=T CABSK=T CABSF=T GBC=F EBC=F DMAT=T NOFIK=T NOPAO=1 SOLVE=-1  USEPAO=0
 EXCH_A= T EXCH_B= F EXCH_C= F EXCH_P= F
 
 Geminal basis:    OPTFULL  GEM_TYPE=SLATER  BETA=1.0  NGEM=6

 Optimizing Gaussian exponents for each gem_beta

 Geminal optimization for beta= 1.0000
 Weight function:   m=0, omega= 1.4646

 Augmented Hessian optimization of geminal fit. Trust ratio= 0.40000
 Convergence reached after   2 iterations. Final gradient= 8.24D-16, Step= 4.32D-06, Delta= 1.28D-09
 
 Alpha:                 0.19532     0.81920     2.85917     9.50073    35.69989   197.79328
 Coeff:                 0.27070     0.30552     0.18297     0.10986     0.06810     0.04224
 

 Symmetry turned off. Reference energy:       -263.770940651734

 All pairs explicitly correlated. Number of r12-pairs:           78
 
 AO(A)-basis ORBITAL           loaded. Number of functions:     230
 RI(R)-basis CC-PVTZ/JKFIT     loaded. Number of functions:     376
 DF-basis CC-PVTZ/JKFIT        loaded. Number of functions:     376

 Screening thresholds:   THRAO=  1.00D-10  THRMO=  1.00D-09  THRPROD=  1.00D-09
                         THRSW=  1.00D-05  THROV=  1.00D-12  THRF12=   1.00D-08

 CPU time for Fock operators                      1.11 sec
 
 Construction of ABS:
 Smallest eigenvalue of S          2.50E-04  (threshold= 1.00E-08)
 Ratio eigmin/eigmax               1.78E-06  (threshold= 1.00E-09)
 Smallest eigenvalue of S kept     2.50E-04  (threshold= 2.50E-04, 0 functions deleted, 376 kept)
 
 Construction of CABS:
 Smallest eigenvalue of S          2.27E-08  (threshold= 1.00E-08)
 Ratio eigmin/eigmax               2.27E-08  (threshold= 1.00E-09)
 Smallest eigenvalue of S kept     2.27E-08  (threshold= 2.27E-08, 0 functions deleted, 376 kept)
 
 CPU time for CABS singles                        0.19 sec

 CABS-singles contribution of  -0.01595739 patched into reference energy.
 New reference energy        -263.78689804
 
 AO(A)-basis ORBITAL           loaded. Number of functions:     230
 RI(R)-basis CC-PVTZ/JKFIT     loaded. Number of functions:     376
 DF-basis AUG-CC-PVTZ/MP2FIT   loaded. Number of functions:     516

 Screening thresholds:   THRAO=  1.00D-10  THRMO=  1.00D-09  THRPROD=  1.00D-09
                         THRSW=  1.00D-05  THROV=  1.00D-12  THRF12=   1.00D-08

 CPU time for 3-index integral evaluation         3.40 sec
 CPU time for first  half transformation          0.24 sec (12509.7 MFLOP/sec)
 CPU time for second half transformation          0.01 sec (10042.0 MFLOP/sec)
 CPU time for sorting                             0.16 sec
 CPU time for fitting                             0.05 sec (27861.0 MFLOP/sec)
 CPU time for tilde quantities                    0.07 sec (26412.6 MFLOP/sec)
 CPU time for assembly                            0.92 sec (26098.9 MFLOP/sec)
 CPU time for tranop_f12                          1.01 sec (29907.9 MFLOP/sec)
 CPU time for f12 integrals (total)               8.22 sec
 F12-matrices built in  3 passes.
 F12-matrices built in  3 passes.
 F12-matrices built in  3 passes.
 F12-matrices built in  3 passes.
 FC-matrix built in  3 passes.
 CPU time for f12 matrices (total)                0.52 sec

 Diagonal F12 approximation with fixed coefficients:  TSING= 0.500,  TTRIP= 0.250 (scaled by -1/beta)

 DF-MP2-F12 energy corrections:
 ------------------------------
 Approx.                                    Singlet             Triplet             Total
 DF-MP2-F12/3*C(DX,FIX)                -0.097321480405     -0.016978836775     -0.114300317180
 DF-MP2-F12/3*C(FIX)                   -0.079750319821     -0.013461861639     -0.093212181460
 DF-MP2-F12/3C(FIX)                    -0.080121123929     -0.013499479852     -0.093620603781

 DF-MP2-F12 correlation energies:
 --------------------------------
 Approx.                                    Singlet             Triplet             Ecorr            Total Energy
 DF-MP2                                -0.538014613070     -0.344496625444     -0.882511238514   -264.669409278285
 DF-MP2-F12/3*C(DX,FIX)                -0.635336093475     -0.361475462219     -0.996811555694   -264.783709595465
 DF-MP2-F12/3*C(FIX)                   -0.617764932891     -0.357958487083     -0.975723419974   -264.762621459745
 DF-MP2-F12/3C(FIX)                    -0.618135736999     -0.357996105296     -0.976131842295   -264.763029882066

 SCS-DF-MP2 energies (F_SING= 1.20000  F_TRIP= 0.62222  F_PARALLEL= 0.33333):
 ----------------------------------------------------------------------------
 SCS-DF-MP2                            -0.859970991516   -264.646869031287
 SCS-DF-MP2-F12/3*C(DX,FIX)            -0.987321377551   -264.774219417321
 SCS-DF-MP2-F12/3*C(FIX)               -0.964047644765   -264.750945684536
 SCS-DF-MP2-F12/3C(FIX)                -0.964516016583   -264.751414056354

 Symmetry restored.
 Symmetry transformation completed.

 Number of N-1 electron functions:              12
 Number of N-2 electron functions:              78
 Number of singly external CSFs:              1422
 Number of doubly external CSFs:           1668984
 Total number of CSFs:                     1670407

 Pair and operator lists are different

 Length of J-op  integral file:             466.33 MB
 Length of K-op  integral file:             525.76 MB
 Length of 3-ext integral record:             0.00 MB

 Memory could be reduced to 76.19 Mwords without degradation in triples

 Integral transformation finished. Total CPU:   4.88 sec, npass=  1  Memory used:  26.50 MW

 Reference energy:                   -263.78689804

 Adding F12 terms to K(Cij), methodcc=6,  factor=1.0

 ITER.      SQ.NORM     CORR.ENERGY   TOTAL ENERGY   ENERGY CHANGE        DEN1      VAR(S)    VAR(P)  DIIS     TIME
   1      1.20223972    -0.86440387  -264.65130191     0.01811955     0.04671153  0.72D-02  0.55D-02  1  1    18.51
   2      1.21660550    -0.86022375  -264.64712179     0.00418012    -0.02020972  0.88D-04  0.59D-03  2  2    22.27
   3      1.22196744    -0.86033701  -264.64723505    -0.00011327    -0.00232476  0.13D-03  0.32D-04  3  3    25.68
   4      1.22478717    -0.86020708  -264.64710512     0.00012993    -0.00141559  0.78D-05  0.41D-05  4  4    28.84
   5      1.22582509    -0.86017003  -264.64706807     0.00003706    -0.00036567  0.61D-06  0.29D-06  5  5    32.07
   6      1.22599057    -0.86014303  -264.64704107     0.00002700    -0.00000814  0.46D-07  0.25D-07  6  6    35.42
   7      1.22602288    -0.86014015  -264.64703819     0.00000288    -0.00000683  0.38D-08  0.41D-08  6  2    38.79
   8      1.22602350    -0.86013988  -264.64703792     0.00000026     0.00000205  0.46D-09  0.34D-09  6  1    42.17
   9      1.22602415    -0.86013994  -264.64703798    -0.00000006     0.00000066  0.54D-10  0.29D-10  6  4    45.68

 Norm of t1 vector:      0.10657630      S-energy:     0.00000148      T1 diagnostic:  0.01538296
                                                                       D1 diagnostic:  0.04573201

 Adding energy correction from Wij-K(Fij), methodcc=6  factor=1.0
 
  CCSD correlation energy              -0.860139942177
  MP2-F12 correction (uncoupled)       -0.092459637336
  C*T doubles correction               -0.001472289890
  f12b correction                       0.015410924203


 Total CPU time for triples:     76.05 sec


 RESULTS
 =======

  Reference energy                   -263.770940651735
  F12 singles correction               -0.015957388036

 F12 singles corrections added to reference energy

  New reference energy               -263.786898039771

  F12a singlet correction              -0.080321050658
  F12a triplet correction              -0.013610876568
  F12a total correction                -0.093931927226

 F12a corrections for ansatz F12/3C(FIX) added to CCSD energy
 
  CCSD-F12a singlet pair energy        -0.641893900194
  CCSD-F12a triplet pair energy        -0.312179453550
  CCSD-F12a correlation energy         -0.954071869403

  Triples (T) contribution             -0.037957091182
  Total correlation energy             -0.992028960585

  CCSD-F12a total energy             -264.740969909173
  CCSD[T]-F12a energy                -264.781477269169
  CCSD-T-F12a energy                 -264.777992150559
 !CCSD(T)-F12a total energy          -264.778927000356

 F12b corrections for ansatz F12/3C(FIX) added to CCSD(T)-F12a energy

  CCSD-F12b singlet pair energy        -0.627714773120
  CCSD-F12b triplet pair energy        -0.310947656421
  CCSD-F12b correlation energy         -0.938660945200

  Triples (T) contribution             -0.037957091182
  Total correlation energy             -0.976618036382

  CCSD-F12b total energy             -264.725558984971
  CCSD[T]-F12b energy                -264.766066344967
  CCSD-T-F12b energy                 -264.762581226356
 !CCSD(T)-F12b total energy          -264.763516076153

 Timing summary (sec):

 STEP                 CPU(USER)    SYS     CPU(TOT)    WALL
 Transformation          4.91      0.63      5.54      5.54
 CCSD iterations        30.22      1.86     32.08     32.85
 Triples                76.05      1.59     77.64     77.61
 MP2-F12                10.55      1.32     11.87     11.87
 F12b energy             2.43      0.05      2.48      2.47

 Program statistics:

 Available memory in ccsd:                99998934
 Min. memory needed in ccsd:               4419579
 Max. memory used in ccsd:                 5922321
 Max. memory used in cckext:               6231049 (10 integral passes)



 **********************************************************************************************************************************
 DATASETS  * FILE   NREC   LENGTH (MB)   RECORD NAMES
              1      20      268.24       500      610      700      900      950      970     1000      129      960     1100   
                                          VAR    BASINP    GEOM    SYMINP    ZMAT    AOBASIS   BASIS     P2S    ABASIS      S 
                                         1400     1410     1200     1210     1080     1600     1650     1700      960(1)  1380   
                                           T        V       H0       H01     AOSYM     SMH    MOLCAS    OPER    ABASIS    JKOP   

              2       5        1.51       700     1000     2100     7360     7350   
                                         GEOM     BASIS     RHF    F12ABS    EF12   

 PROGRAMS   *        TOTAL   CCSD(T)        HF       INT
 CPU TIMES  *       138.20    124.23      4.44      9.46
 REAL TIME  *       147.03 SEC
 DISK USED  *         3.18 GB      
 SF USED    *         1.52 GB      
 GA USED    *         2.40 MB       (max)       0.00 MB       (current)
 **********************************************************************************************************************************

     CCSD(T)-F12        HF-SCF  
   -264.76351608   -263.77094065
 **********************************************************************************************************************************
 Variable memory released
