
 Primary working directories    : /scratch/kee
 Secondary working directories  : /scratch/kee
 Wavefunction directory         : /home/kee/wfu/
 Main file repository           : /scratch/kee/

 ARCHNAME  : Linux/x86_64
 FC        : /opt/intel/composer_xe_2015.0.090/bin/intel64/ifort
 FCVERSION : 15.0.0
 BLASLIB   : -L/opt/intel/mkl/lib/intel64 -lmkl_intel_ilp64 -lmkl_sequential -lmkl_core
 id        : emory

 Nodes     nprocs
 node24       3
 Number of processes for MPI-2 version of Molpro:   nprocs(total)=    4   nprocs(compute)=    3   nprocs(helper)=    1
 ga_uses_ma=false, calling ma_init with nominal heap.
 GA-space will be limited to   8.0 MW (determined by -G option)

 Using customized tuning parameters: mindgm=7; mindgv=32; mindgc=1; mindgr=1; noblas=0; mincuda=1000; minvec=7
 default implementation of scratch files=sf  

 ***,co2h2o
 memory,100,m
 basis avtz
 geomtype = xyz
 geometry = {
 6
    -264.76489694
 O     0.82869278    1.16169550    0.00000000
 O     0.82658011   -1.16233555    0.00000000
 O    -3.29123449    0.00130808    0.00000000
 H    -3.87486750    0.76190273    0.00000000
 H    -3.87459939   -0.75949384    0.00000000
 C     0.80876519   -0.00029961    0.00000000
 }
 hf
 ccsd(t)-f12
 ---

 Variables initialized (665), CPU time= 0.01 sec
 Commands  initialized (462), CPU time= 0.01 sec, 486 directives.
 Default parameters read. Elapsed time= 0.06 sec

 Checking input...
 Passed
1


                                         ***  PROGRAM SYSTEM MOLPRO  ***
                         Copyright, University College Cardiff Consultants Limited, 2008

                                    Version 2010.1 linked 9 Dec 2014 15:06:28 


 **********************************************************************************************************************************
 LABEL *   co2h2o                                                                        
 Linux-2.6.32-504.el6.x86_64/node24(x86_64) 64 bit mpp version                           DATE: 07-Dec-16          TIME: 00:15:03  
 **********************************************************************************************************************************

 Patch level:      19
 **********************************************************************************************************************************

 Variable memory set to  100000000 words,  buffer space   230000 words

 SETTING BASIS          =    AVTZ
 SETTING GEOMTYPE       =    XYZ

Geometry recognized as XYZ



 Recomputing integrals since basis changed


 Using spherical harmonics

 Library entry O      S aug-cc-pVTZ          selected for orbital group  1
 Library entry O      P aug-cc-pVTZ          selected for orbital group  1
 Library entry O      D aug-cc-pVTZ          selected for orbital group  1
 Library entry O      F aug-cc-pVTZ          selected for orbital group  1
 Library entry H      S aug-cc-pVTZ          selected for orbital group  2
 Library entry H      P aug-cc-pVTZ          selected for orbital group  2
 Library entry H      D aug-cc-pVTZ          selected for orbital group  2
 Library entry C      S aug-cc-pVTZ          selected for orbital group  3
 Library entry C      P aug-cc-pVTZ          selected for orbital group  3
 Library entry C      D aug-cc-pVTZ          selected for orbital group  3
 Library entry C      F aug-cc-pVTZ          selected for orbital group  3

1PROGRAM * SEWARD (Integral evaluation for generally contracted gaussian basis sets)     Author: Roland Lindh, 1990

 Geometry written to block  1 of record 700


 Point group  Cs  



 ATOMIC COORDINATES

 NR  ATOM    CHARGE       X              Y              Z

   1  O       8.00    1.566002401    2.195286343    0.000000000
   2  O       8.00    1.562010034   -2.196495862    0.000000000
   3  O       8.00   -6.219531820    0.002471913    0.000000000
   4  H       1.00   -7.322438371    1.439787498    0.000000000
   5  H       1.00   -7.321931716   -1.435235356    0.000000000
   6  C       6.00    1.528344714   -0.000566181    0.000000000

 Bond lengths in Bohr (Angstrom)

 1-6  2.196175405  2-6  2.196187724  3-4  1.811706088  3-5  1.811708509
     (1.162165971)     (1.162172490)     (0.958713571)     (0.958714852)

 Bond angles

  1-6-2  178.13918425   4-3-5  105.01947441

 NUCLEAR CHARGE:                   32
 NUMBER OF PRIMITIVE AOS:         322
 NUMBER OF SYMMETRY AOS:          282
 NUMBER OF CONTRACTIONS:          230   ( 152A'  +  78A"  )
 NUMBER OF CORE ORBITALS:           4   (   4A'  +   0A"  )
 NUMBER OF VALENCE ORBITALS:       18   (  14A'  +   4A"  )


 NUCLEAR REPULSION ENERGY   94.28553101


 Eigenvalues of metric

         1 0.334E-03 0.358E-03 0.366E-03 0.374E-03 0.894E-03 0.915E-03 0.152E-02 0.162E-02
         2 0.317E-02 0.348E-02 0.565E-02 0.124E-01 0.134E-01 0.280E-01 0.296E-01 0.311E-01


 Contracted 2-electron integrals neglected if value below      1.0D-11
 AO integral compression algorithm  1   Integral accuracy      1.0D-11

     564.920 MB (compressed) written to integral file ( 34.0%)

     Node minimum: 171.442 MB, node maximum: 202.375 MB


 NUMBER OF SORTED TWO-ELECTRON INTEGRALS:   59950380.     BUFFER LENGTH:  32768
 NUMBER OF SEGMENTS:   4  SEGMENT LENGTH:   15995235      RECORD LENGTH: 524288

 Memory used in sort:      16.55 MW

 SORT1 READ   207531521. AND WROTE    44385608. INTEGRALS IN    129 RECORDS. CPU TIME:     3.29 SEC, REAL TIME:     3.79 SEC
 SORT2 READ   133869051. AND WROTE   179836431. INTEGRALS IN   1962 RECORDS. CPU TIME:     1.10 SEC, REAL TIME:     1.54 SEC

 Node minimum:    59940574.  Node maximum:    59950380. integrals

 OPERATOR DM      FOR CENTER  0  COORDINATES:    0.000000    0.000000    0.000000


 **********************************************************************************************************************************
 DATASETS  * FILE   NREC   LENGTH (MB)   RECORD NAMES
              1      18        3.74       500      610      700      900      950      970     1000      129      960     1100   
                                          VAR    BASINP    GEOM    SYMINP    ZMAT    AOBASIS   BASIS     P2S    ABASIS      S 
                                         1400     1410     1200     1210     1080     1600     1650     1700   
                                           T        V       H0       H01     AOSYM     SMH    MOLCAS    OPER   

 PROGRAMS   *        TOTAL       INT
 CPU TIMES  *         9.57      9.45
 REAL TIME  *        11.36 SEC
 DISK USED  *         2.15 GB      
 GA USED    *         0.00 MB       (max)       0.00 MB       (current)
 **********************************************************************************************************************************

1PROGRAM * RHF-SCF (CLOSED SHELL)       Authors: W. Meyer, H.-J. Werner


 NUMBER OF ELECTRONS:      16+   16-
 CONVERGENCE THRESHOLDS:    1.00E-05 (Density)    1.00E-07 (Energy)
 MAX. NUMBER OF ITERATIONS:       60
 INTERPOLATION TYPE:            DIIS
 INTERPOLATION STEPS:              2 (START)      1 (STEP)
 LEVEL SHIFTS:                  0.00 (CLOSED)  0.00 (OPEN) 



 Orbital guess generated from atomic densities. Full valence occupancy:   18   4

 Molecular orbital dump at record        2100.2

 Initial alpha occupancy:  13   3
 Initial beta  occupancy:  13   3
 Wave function symmetry:    1

 ITERATION    DDIFF          GRAD             ENERGY        2-EL.EN.            DIPOLE MOMENTS         DIIS
    1      0.000D+00      0.000D+00      -263.66325603    384.559161   -1.18498   -0.00012    0.00000    0
    2      0.000D+00      0.626D-02      -263.72799156    379.853507   -0.74323   -0.00008    0.00000    1
    3      0.100D-01      0.423D-02      -263.77025295    382.416013   -0.84933   -0.00007    0.00000    2
    4      0.411D-02      0.403D-03      -263.77074817    382.211717   -0.85207   -0.00008    0.00000    3
    5      0.486D-03      0.117D-03      -263.77080627    382.209290   -0.84726   -0.00008    0.00000    4
    6      0.182D-03      0.477D-04      -263.77081355    382.224787   -0.84804   -0.00008    0.00000    5
    7      0.609D-04      0.115D-04      -263.77081428    382.216262   -0.84762   -0.00008    0.00000    6
    8      0.197D-04      0.254D-05      -263.77081433    382.217584   -0.84764   -0.00008    0.00000    7
    9      0.539D-05      0.849D-06      -263.77081433    382.217374   -0.84761   -0.00008    0.00000    0

 Final occupancy:  13   3

 !RHF STATE 1.1 Energy               -263.770814329746
 Nuclear energy                        94.28553101
 One-electron energy                 -549.16503210
 Two-electron energy                  191.10868677
 Virial quotient                       -1.00184360
 !RHF STATE 1.1 Dipole moment          -0.84760617    -0.00007691     0.00000000
 Dipole moment /Debye                  -2.15425890    -0.00019548     0.00000000

 Orbital energies:

         1.1          2.1          3.1          4.1          5.1          6.1          7.1          8.1          9.1         10.1
    -20.642096   -20.642050   -20.571513   -11.451253    -1.519759    -1.466744    -1.356780    -0.790450    -0.732813    -0.722213

        11.1         12.1         13.1         14.1         15.1
     -0.703521    -0.588680    -0.533641     0.027513     0.047439

         1.2          2.2          3.2          4.2          5.2
     -0.703968    -0.533798    -0.514551     0.080920     0.163756


 **********************************************************************************************************************************
 DATASETS  * FILE   NREC   LENGTH (MB)   RECORD NAMES
              1      18        3.76       500      610      700      900      950      970     1000      129      960     1100   
                                          VAR    BASINP    GEOM    SYMINP    ZMAT    AOBASIS   BASIS     P2S    ABASIS      S 
                                         1400     1410     1200     1210     1080     1600     1650     1700   
                                           T        V       H0       H01     AOSYM     SMH    MOLCAS    OPER   

              2       3        0.96       700     1000     2100   
                                         GEOM     BASIS     RHF  

 PROGRAMS   *        TOTAL        HF       INT
 CPU TIMES  *        14.90      5.33      9.45
 REAL TIME  *        17.02 SEC
 DISK USED  *         2.18 GB      
 SF USED    *         0.12 MB      
 GA USED    *         0.00 MB       (max)       0.00 MB       (current)
 **********************************************************************************************************************************


1PROGRAM * CCSD (Closed-shell coupled cluster)     Authors: C. Hampel, H.-J. Werner, 1991, M. Deegan, P.J. Knowles, 1992

                                  CCSD-F12 implementation by  H.-J. Werner, 2007

                   Density fitting integral evaluation by F.R. Manby, 2003,2007, G. Knizia, 2010

 Basis set CC-PVTZ/JKFIT generated.      Number of basis functions:   376 
 Basis set AUG-CC-PVTZ/MP2FIT generated. Number of basis functions:   516 

 Convergence thresholds:  THRVAR = 1.00D-08  THRDEN = 1.00D-06

 CCSD(T)     terms to be evaluated (factor= 1.000)


 Number of core orbitals:           4 (   4   0 )
 Number of closed-shell orbitals:  12 (   9   3 )
 Number of external orbitals:     214 ( 139  75 )

 Molecular orbitals read from record     2100.2  Type=RHF/CANONICAL (state 1.1)

 MP2-F12 correlation treatment (H.-J. Werner, 2006)
 --------------------------------------------------

 Using MP2-F12 with ansatz 3C(FIX)

 Using projected zeroth-order Hamiltonian (+Z)

 FOCKRIB=T FOCKRIC=T FOCKRIP=T CABSP=T CABSA=T CABSK=T CABSF=T GBC=F EBC=F DMAT=T NOFIK=T NOPAO=1 SOLVE=-1  USEPAO=0
 EXCH_A= T EXCH_B= F EXCH_C= F EXCH_P= F
 
 Geminal basis:    OPTFULL  GEM_TYPE=SLATER  BETA=1.0  NGEM=6

 Optimizing Gaussian exponents for each gem_beta

 Geminal optimization for beta= 1.0000
 Weight function:   m=0, omega= 1.4646

 Augmented Hessian optimization of geminal fit. Trust ratio= 0.40000
 Convergence reached after   2 iterations. Final gradient= 8.24D-16, Step= 4.32D-06, Delta= 1.28D-09
 
 Alpha:                 0.19532     0.81920     2.85917     9.50073    35.69989   197.79328
 Coeff:                 0.27070     0.30552     0.18297     0.10986     0.06810     0.04224
 

 Symmetry turned off. Reference energy:       -263.770814329745

 All pairs explicitly correlated. Number of r12-pairs:           78
 
 AO(A)-basis ORBITAL           loaded. Number of functions:     230
 RI(R)-basis CC-PVTZ/JKFIT     loaded. Number of functions:     376
 DF-basis CC-PVTZ/JKFIT        loaded. Number of functions:     376

 Screening thresholds:   THRAO=  1.00D-10  THRMO=  1.00D-09  THRPROD=  1.00D-09
                         THRSW=  1.00D-05  THROV=  1.00D-12  THRF12=   1.00D-08

 CPU time for Fock operators                      1.19 sec
 
 Construction of ABS:
 Smallest eigenvalue of S          2.57E-04  (threshold= 1.00E-08)
 Ratio eigmin/eigmax               1.83E-06  (threshold= 1.00E-09)
 Smallest eigenvalue of S kept     2.57E-04  (threshold= 2.57E-04, 0 functions deleted, 376 kept)
 
 Construction of CABS:
 Smallest eigenvalue of S          2.29E-08  (threshold= 1.00E-08)
 Ratio eigmin/eigmax               2.29E-08  (threshold= 1.00E-09)
 Smallest eigenvalue of S kept     2.29E-08  (threshold= 2.29E-08, 0 functions deleted, 376 kept)
 
 CPU time for CABS singles                        0.18 sec

 CABS-singles contribution of  -0.01591679 patched into reference energy.
 New reference energy        -263.78673112
 
 AO(A)-basis ORBITAL           loaded. Number of functions:     230
 RI(R)-basis CC-PVTZ/JKFIT     loaded. Number of functions:     376
 DF-basis AUG-CC-PVTZ/MP2FIT   loaded. Number of functions:     516

 Screening thresholds:   THRAO=  1.00D-10  THRMO=  1.00D-09  THRPROD=  1.00D-09
                         THRSW=  1.00D-05  THROV=  1.00D-12  THRF12=   1.00D-08

 CPU time for 3-index integral evaluation         3.39 sec
 CPU time for first  half transformation          0.24 sec (12192.3 MFLOP/sec)
 CPU time for second half transformation          0.01 sec (10686.1 MFLOP/sec)
 CPU time for sorting                             0.15 sec
 CPU time for fitting                             0.06 sec (23217.5 MFLOP/sec)
 CPU time for tilde quantities                    0.17 sec (10875.8 MFLOP/sec)
 CPU time for assembly                            0.85 sec (27677.7 MFLOP/sec)
 CPU time for tranop_f12                          1.16 sec (22246.2 MFLOP/sec)
 CPU time for f12 integrals (total)               9.06 sec
 F12-matrices built in  3 passes.
 F12-matrices built in  3 passes.
 F12-matrices built in  3 passes.
 F12-matrices built in  3 passes.
 FC-matrix built in  3 passes.
 CPU time for f12 matrices (total)                0.56 sec

 Diagonal F12 approximation with fixed coefficients:  TSING= 0.500,  TTRIP= 0.250 (scaled by -1/beta)

 DF-MP2-F12 energy corrections:
 ------------------------------
 Approx.                                    Singlet             Triplet             Total
 DF-MP2-F12/3*C(DX,FIX)                -0.097409821271     -0.016929322268     -0.114339143539
 DF-MP2-F12/3*C(FIX)                   -0.079837799607     -0.013394629611     -0.093232429218
 DF-MP2-F12/3C(FIX)                    -0.080200208334     -0.013419689783     -0.093619898116

 DF-MP2-F12 correlation energies:
 --------------------------------
 Approx.                                    Singlet             Triplet             Ecorr            Total Energy
 DF-MP2                                -0.537676618148     -0.343158756763     -0.880835374911   -264.667566492261
 DF-MP2-F12/3*C(DX,FIX)                -0.635086439419     -0.360088079031     -0.995174518450   -264.781905635800
 DF-MP2-F12/3*C(FIX)                   -0.617514417755     -0.356553386375     -0.974067804129   -264.760798921479
 DF-MP2-F12/3C(FIX)                    -0.617876826482     -0.356578446546     -0.974455273027   -264.761186390377

 SCS-DF-MP2 energies (F_SING= 1.20000  F_TRIP= 0.62222  F_PARALLEL= 0.33333):
 ----------------------------------------------------------------------------
 SCS-DF-MP2                            -0.858732945985   -264.645464063335
 SCS-DF-MP2-F12/3*C(DX,FIX)            -0.986158532033   -264.772889649383
 SCS-DF-MP2-F12/3*C(FIX)               -0.962872741716   -264.749603859066
 SCS-DF-MP2-F12/3C(FIX)                -0.963323225184   -264.750054342534

 Symmetry restored.
 Symmetry transformation completed.

 Number of N-1 electron functions:              12
 Number of N-2 electron functions:              78
 Number of singly external CSFs:              1476
 Number of doubly external CSFs:           1686804
 Total number of CSFs:                     1688281

 Pair and operator lists are different

 Length of J-op  integral file:             466.42 MB
 Length of K-op  integral file:             526.62 MB
 Length of 3-ext integral record:             0.00 MB

 Memory could be reduced to 76.61 Mwords without degradation in triples

 Integral transformation finished. Total CPU:   5.01 sec, npass=  1  Memory used:  24.61 MW

 Reference energy:                   -263.78673112

 Adding F12 terms to K(Cij), methodcc=6,  factor=1.0

 ITER.      SQ.NORM     CORR.ENERGY   TOTAL ENERGY   ENERGY CHANGE        DEN1      VAR(S)    VAR(P)  DIIS     TIME
   1      1.20210027    -0.86280694  -264.64953806     0.01804441     0.04662603  0.72D-02  0.55D-02  1  1    19.53
   2      1.21639870    -0.85860161  -264.64533273     0.00420533    -0.02012746  0.87D-04  0.59D-03  2  2    23.92
   3      1.22176183    -0.85870230  -264.64543341    -0.00010068    -0.00236574  0.13D-03  0.32D-04  3  3    27.06
   4      1.22456525    -0.85857488  -264.64530600     0.00012742    -0.00141142  0.76D-05  0.41D-05  4  4    30.21
   5      1.22559492    -0.85853729  -264.64526841     0.00003758    -0.00036579  0.56D-06  0.28D-06  5  5    33.59
   6      1.22575701    -0.85851042  -264.64524154     0.00002687    -0.00000803  0.40D-07  0.24D-07  6  6    37.37
   7      1.22578638    -0.85850800  -264.64523912     0.00000242    -0.00000622  0.26D-08  0.40D-08  6  4    40.86
   8      1.22578670    -0.85850751  -264.64523862     0.00000049     0.00000193  0.40D-09  0.27D-09  6  1    44.07
   9      1.22578731    -0.85850757  -264.64523869    -0.00000007     0.00000056  0.27D-10  0.22D-10  6  2    47.19

 Norm of t1 vector:      0.10598387      S-energy:    -0.00000003      T1 diagnostic:  0.01529745
                                                                       D1 diagnostic:  0.04505635

 Adding energy correction from Wij-K(Fij), methodcc=6  factor=1.0
 
  CCSD correlation energy              -0.858507573518
  MP2-F12 correction (uncoupled)       -0.092463247454
  C*T doubles correction               -0.001472516587
  f12b correction                       0.015404934756


 Total CPU time for triples:     78.71 sec


 RESULTS
 =======

  Reference energy                   -263.770814329745
  F12 singles correction               -0.015916787605

 F12 singles corrections added to reference energy

  New reference energy               -263.786731117350

  F12a singlet correction              -0.080398430915
  F12a triplet correction              -0.013537333126
  F12a total correction                -0.093935764041

 F12a corrections for ansatz F12/3C(FIX) added to CCSD energy
 
  CCSD-F12a singlet pair energy        -0.641802390091
  CCSD-F12a triplet pair energy        -0.310640919830
  CCSD-F12a correlation energy         -0.952443337559

  Triples (T) contribution             -0.037652795783
  Total correlation energy             -0.990096133342

  CCSD-F12a total energy             -264.739174454909
  CCSD[T]-F12a energy                -264.779366992629
  CCSD-T-F12a energy                 -264.775892246211
 !CCSD(T)-F12a total energy          -264.776827250693

 F12b corrections for ansatz F12/3C(FIX) added to CCSD(T)-F12a energy

  CCSD-F12b singlet pair energy        -0.627621168742
  CCSD-F12b triplet pair energy        -0.309417206424
  CCSD-F12b correlation energy         -0.937038402803

  Triples (T) contribution             -0.037652795784
  Total correlation energy             -0.974691198586

  CCSD-F12b total energy             -264.723769520153
  CCSD[T]-F12b energy                -264.763962057873
  CCSD-T-F12b energy                 -264.760487311455
 !CCSD(T)-F12b total energy          -264.761422315936

 Timing summary (sec):

 STEP                 CPU(USER)    SYS     CPU(TOT)    WALL
 Transformation          5.04      0.61      5.65      5.64
 CCSD iterations        30.67      1.71     32.38     32.54
 Triples                78.71      1.55     80.26     80.23
 MP2-F12                11.50      1.27     12.77     12.77
 F12b energy             2.09      0.04      2.13      2.13

 Program statistics:

 Available memory in ccsd:                99998934
 Min. memory needed in ccsd:               4458306
 Max. memory used in ccsd:                 5958390
 Max. memory used in cckext:               6352469 (10 integral passes)



 **********************************************************************************************************************************
 DATASETS  * FILE   NREC   LENGTH (MB)   RECORD NAMES
              1      20      269.66       500      610      700      900      950      970     1000      129      960     1100   
                                          VAR    BASINP    GEOM    SYMINP    ZMAT    AOBASIS   BASIS     P2S    ABASIS      S 
                                         1400     1410     1200     1210     1080     1600     1650     1700      960(1)  1380   
                                           T        V       H0       H01     AOSYM     SMH    MOLCAS    OPER    ABASIS    JKOP   

              2       5        1.55       700     1000     2100     7360     7350   
                                         GEOM     BASIS     RHF    F12ABS    EF12   

 PROGRAMS   *        TOTAL   CCSD(T)        HF       INT
 CPU TIMES  *       142.94    128.03      5.33      9.45
 REAL TIME  *       150.66 SEC
 DISK USED  *         2.62 GB      
 SF USED    *         1.53 GB      
 GA USED    *         2.40 MB       (max)       0.00 MB       (current)
 **********************************************************************************************************************************

     CCSD(T)-F12        HF-SCF  
   -264.76142232   -263.77081433
 **********************************************************************************************************************************
 Variable memory released
