
 Primary working directories    : /scratch/kee
 Secondary working directories  : /scratch/kee
 Wavefunction directory         : /home/kee/wfu/
 Main file repository           : /scratch/kee/

 ARCHNAME  : Linux/x86_64
 FC        : /opt/intel/composer_xe_2015.0.090/bin/intel64/ifort
 FCVERSION : 15.0.0
 BLASLIB   : -L/opt/intel/mkl/lib/intel64 -lmkl_intel_ilp64 -lmkl_sequential -lmkl_core
 id        : emory

 Nodes     nprocs
 node24       3
 Number of processes for MPI-2 version of Molpro:   nprocs(total)=    4   nprocs(compute)=    3   nprocs(helper)=    1
 ga_uses_ma=false, calling ma_init with nominal heap.
 GA-space will be limited to   8.0 MW (determined by -G option)

 Using customized tuning parameters: mindgm=7; mindgv=32; mindgc=1; mindgr=1; noblas=0; mincuda=1000; minvec=7
 default implementation of scratch files=sf  

 ***,co2h2o
 memory,100,m
 basis avtz
 geomtype = xyz
 geometry = {
 6
    -264.76489694
 O     0.82869278    1.16169550    0.00000000
 O     0.82658011   -1.16233555    0.00000000
 O    -3.39123449    0.00134729    0.00000000
 H    -3.97486750    0.76194194    0.00000000
 H    -3.97459939   -0.75945463    0.00000000
 C     0.80876519   -0.00029961    0.00000000
 }
 hf
 ccsd(t)-f12
 ---

 Variables initialized (665), CPU time= 0.00 sec
 Commands  initialized (462), CPU time= 0.01 sec, 486 directives.
 Default parameters read. Elapsed time= 0.04 sec

 Checking input...
 Passed
1


                                         ***  PROGRAM SYSTEM MOLPRO  ***
                         Copyright, University College Cardiff Consultants Limited, 2008

                                    Version 2010.1 linked 9 Dec 2014 15:06:28 


 **********************************************************************************************************************************
 LABEL *   co2h2o                                                                        
 Linux-2.6.32-504.el6.x86_64/node24(x86_64) 64 bit mpp version                           DATE: 07-Dec-16          TIME: 00:20:21  
 **********************************************************************************************************************************

 Patch level:      19
 **********************************************************************************************************************************

 Variable memory set to  100000000 words,  buffer space   230000 words

 SETTING BASIS          =    AVTZ
 SETTING GEOMTYPE       =    XYZ

Geometry recognized as XYZ



 Recomputing integrals since basis changed


 Using spherical harmonics

 Library entry O      S aug-cc-pVTZ          selected for orbital group  1
 Library entry O      P aug-cc-pVTZ          selected for orbital group  1
 Library entry O      D aug-cc-pVTZ          selected for orbital group  1
 Library entry O      F aug-cc-pVTZ          selected for orbital group  1
 Library entry H      S aug-cc-pVTZ          selected for orbital group  2
 Library entry H      P aug-cc-pVTZ          selected for orbital group  2
 Library entry H      D aug-cc-pVTZ          selected for orbital group  2
 Library entry C      S aug-cc-pVTZ          selected for orbital group  3
 Library entry C      P aug-cc-pVTZ          selected for orbital group  3
 Library entry C      D aug-cc-pVTZ          selected for orbital group  3
 Library entry C      F aug-cc-pVTZ          selected for orbital group  3

1PROGRAM * SEWARD (Integral evaluation for generally contracted gaussian basis sets)     Author: Roland Lindh, 1990

 Geometry written to block  1 of record 700


 Point group  Cs  



 ATOMIC COORDINATES

 NR  ATOM    CHARGE       X              Y              Z

   1  O       8.00    1.566002401    2.195286343    0.000000000
   2  O       8.00    1.562010034   -2.196495862    0.000000000
   3  O       8.00   -6.408504434    0.002546009    0.000000000
   4  H       1.00   -7.511410984    1.439861595    0.000000000
   5  H       1.00   -7.510904329   -1.435161260    0.000000000
   6  C       6.00    1.528344714   -0.000566181    0.000000000

 Bond lengths in Bohr (Angstrom)

 1-6  2.196175405  2-6  2.196187724  3-4  1.811706088  3-5  1.811708509
     (1.162165971)     (1.162172490)     (0.958713571)     (0.958714852)

 Bond angles

  1-6-2  178.13918425   4-3-5  105.01947441

 NUCLEAR CHARGE:                   32
 NUMBER OF PRIMITIVE AOS:         322
 NUMBER OF SYMMETRY AOS:          282
 NUMBER OF CONTRACTIONS:          230   ( 152A'  +  78A"  )
 NUMBER OF CORE ORBITALS:           4   (   4A'  +   0A"  )
 NUMBER OF VALENCE ORBITALS:       18   (  14A'  +   4A"  )


 NUCLEAR REPULSION ENERGY   93.69538330


 Eigenvalues of metric

         1 0.336E-03 0.359E-03 0.367E-03 0.376E-03 0.895E-03 0.918E-03 0.154E-02 0.162E-02
         2 0.317E-02 0.348E-02 0.567E-02 0.124E-01 0.135E-01 0.280E-01 0.296E-01 0.311E-01


 Contracted 2-electron integrals neglected if value below      1.0D-11
 AO integral compression algorithm  1   Integral accuracy      1.0D-11

     552.862 MB (compressed) written to integral file ( 33.3%)

     Node minimum: 173.277 MB, node maximum: 191.103 MB


 NUMBER OF SORTED TWO-ELECTRON INTEGRALS:   59950380.     BUFFER LENGTH:  32768
 NUMBER OF SEGMENTS:   4  SEGMENT LENGTH:   15995235      RECORD LENGTH: 524288

 Memory used in sort:      16.55 MW

 SORT1 READ   207531521. AND WROTE    43469090. INTEGRALS IN    126 RECORDS. CPU TIME:     3.30 SEC, REAL TIME:     3.77 SEC
 SORT2 READ   131110343. AND WROTE   179836431. INTEGRALS IN   2187 RECORDS. CPU TIME:     1.15 SEC, REAL TIME:     1.56 SEC

 Node minimum:    59940574.  Node maximum:    59950380. integrals

 OPERATOR DM      FOR CENTER  0  COORDINATES:    0.000000    0.000000    0.000000


 **********************************************************************************************************************************
 DATASETS  * FILE   NREC   LENGTH (MB)   RECORD NAMES
              1      18        3.74       500      610      700      900      950      970     1000      129      960     1100   
                                          VAR    BASINP    GEOM    SYMINP    ZMAT    AOBASIS   BASIS     P2S    ABASIS      S 
                                         1400     1410     1200     1210     1080     1600     1650     1700   
                                           T        V       H0       H01     AOSYM     SMH    MOLCAS    OPER   

 PROGRAMS   *        TOTAL       INT
 CPU TIMES  *         9.43      9.33
 REAL TIME  *        10.82 SEC
 DISK USED  *         2.12 GB      
 GA USED    *         0.00 MB       (max)       0.00 MB       (current)
 **********************************************************************************************************************************

1PROGRAM * RHF-SCF (CLOSED SHELL)       Authors: W. Meyer, H.-J. Werner


 NUMBER OF ELECTRONS:      16+   16-
 CONVERGENCE THRESHOLDS:    1.00E-05 (Density)    1.00E-07 (Energy)
 MAX. NUMBER OF ITERATIONS:       60
 INTERPOLATION TYPE:            DIIS
 INTERPOLATION STEPS:              2 (START)      1 (STEP)
 LEVEL SHIFTS:                  0.00 (CLOSED)  0.00 (OPEN) 



 Orbital guess generated from atomic densities. Full valence occupancy:   18   4

 Molecular orbital dump at record        2100.2

 Initial alpha occupancy:  13   3
 Initial beta  occupancy:  13   3
 Wave function symmetry:    1

 ITERATION    DDIFF          GRAD             ENERGY        2-EL.EN.            DIPOLE MOMENTS         DIIS
    1      0.000D+00      0.000D+00      -263.66299819    383.358147   -1.18477   -0.00012    0.00000    0
    2      0.000D+00      0.626D-02      -263.72778148    378.657294   -0.73875   -0.00008    0.00000    1
    3      0.100D-01      0.423D-02      -263.77013337    381.221151   -0.84627   -0.00007    0.00000    2
    4      0.412D-02      0.403D-03      -263.77062853    381.016210   -0.84906   -0.00008    0.00000    3
    5      0.486D-03      0.117D-03      -263.77068661    381.014134   -0.84421   -0.00008    0.00000    4
    6      0.182D-03      0.476D-04      -263.77069389    381.029554   -0.84498   -0.00008    0.00000    5
    7      0.608D-04      0.115D-04      -263.77069461    381.021038   -0.84456   -0.00008    0.00000    6
    8      0.197D-04      0.254D-05      -263.77069466    381.022358   -0.84457   -0.00008    0.00000    7
    9      0.540D-05      0.849D-06      -263.77069466    381.022149   -0.84454   -0.00008    0.00000    0

 Final occupancy:  13   3

 !RHF STATE 1.1 Energy               -263.770694662123
 Nuclear energy                        93.69538330
 One-electron energy                 -547.97715254
 Two-electron energy                  190.51107457
 Virial quotient                       -1.00184248
 !RHF STATE 1.1 Dipole moment          -0.84454294    -0.00007825     0.00000000
 Dipole moment /Debye                  -2.14647345    -0.00019888     0.00000000

 Orbital energies:

         1.1          2.1          3.1          4.1          5.1          6.1          7.1          8.1          9.1         10.1
    -20.642585   -20.642540   -20.571226   -11.451708    -1.520247    -1.467224    -1.356489    -0.790898    -0.733252    -0.721934

        11.1         12.1         13.1         14.1         15.1
     -0.704025    -0.588324    -0.534103     0.027602     0.047408

         1.2          2.2          3.2          4.2          5.2
     -0.704444    -0.534256    -0.514247     0.080734     0.163230


 **********************************************************************************************************************************
 DATASETS  * FILE   NREC   LENGTH (MB)   RECORD NAMES
              1      18        3.76       500      610      700      900      950      970     1000      129      960     1100   
                                          VAR    BASINP    GEOM    SYMINP    ZMAT    AOBASIS   BASIS     P2S    ABASIS      S 
                                         1400     1410     1200     1210     1080     1600     1650     1700   
                                           T        V       H0       H01     AOSYM     SMH    MOLCAS    OPER   

              2       3        0.96       700     1000     2100   
                                         GEOM     BASIS     RHF  

 PROGRAMS   *        TOTAL        HF       INT
 CPU TIMES  *        14.17      4.75      9.33
 REAL TIME  *        15.87 SEC
 DISK USED  *         2.14 GB      
 SF USED    *         0.12 MB      
 GA USED    *         0.00 MB       (max)       0.00 MB       (current)
 **********************************************************************************************************************************


1PROGRAM * CCSD (Closed-shell coupled cluster)     Authors: C. Hampel, H.-J. Werner, 1991, M. Deegan, P.J. Knowles, 1992

                                  CCSD-F12 implementation by  H.-J. Werner, 2007

                   Density fitting integral evaluation by F.R. Manby, 2003,2007, G. Knizia, 2010

 Basis set CC-PVTZ/JKFIT generated.      Number of basis functions:   376 
 Basis set AUG-CC-PVTZ/MP2FIT generated. Number of basis functions:   516 

 Convergence thresholds:  THRVAR = 1.00D-08  THRDEN = 1.00D-06

 CCSD(T)     terms to be evaluated (factor= 1.000)


 Number of core orbitals:           4 (   4   0 )
 Number of closed-shell orbitals:  12 (   9   3 )
 Number of external orbitals:     214 ( 139  75 )

 Molecular orbitals read from record     2100.2  Type=RHF/CANONICAL (state 1.1)

 MP2-F12 correlation treatment (H.-J. Werner, 2006)
 --------------------------------------------------

 Using MP2-F12 with ansatz 3C(FIX)

 Using projected zeroth-order Hamiltonian (+Z)

 FOCKRIB=T FOCKRIC=T FOCKRIP=T CABSP=T CABSA=T CABSK=T CABSF=T GBC=F EBC=F DMAT=T NOFIK=T NOPAO=1 SOLVE=-1  USEPAO=0
 EXCH_A= T EXCH_B= F EXCH_C= F EXCH_P= F
 
 Geminal basis:    OPTFULL  GEM_TYPE=SLATER  BETA=1.0  NGEM=6

 Optimizing Gaussian exponents for each gem_beta

 Geminal optimization for beta= 1.0000
 Weight function:   m=0, omega= 1.4646

 Augmented Hessian optimization of geminal fit. Trust ratio= 0.40000
 Convergence reached after   2 iterations. Final gradient= 8.24D-16, Step= 4.32D-06, Delta= 1.28D-09
 
 Alpha:                 0.19532     0.81920     2.85917     9.50073    35.69989   197.79328
 Coeff:                 0.27070     0.30552     0.18297     0.10986     0.06810     0.04224
 

 Symmetry turned off. Reference energy:       -263.770694662122

 All pairs explicitly correlated. Number of r12-pairs:           78
 
 AO(A)-basis ORBITAL           loaded. Number of functions:     230
 RI(R)-basis CC-PVTZ/JKFIT     loaded. Number of functions:     376
 DF-basis CC-PVTZ/JKFIT        loaded. Number of functions:     376

 Screening thresholds:   THRAO=  1.00D-10  THRMO=  1.00D-09  THRPROD=  1.00D-09
                         THRSW=  1.00D-05  THROV=  1.00D-12  THRF12=   1.00D-08

 CPU time for Fock operators                      1.09 sec
 
 Construction of ABS:
 Smallest eigenvalue of S          2.57E-04  (threshold= 1.00E-08)
 Ratio eigmin/eigmax               1.83E-06  (threshold= 1.00E-09)
 Smallest eigenvalue of S kept     2.57E-04  (threshold= 2.57E-04, 0 functions deleted, 376 kept)
 
 Construction of CABS:
 Smallest eigenvalue of S          2.29E-08  (threshold= 1.00E-08)
 Ratio eigmin/eigmax               2.29E-08  (threshold= 1.00E-09)
 Smallest eigenvalue of S kept     2.29E-08  (threshold= 2.29E-08, 0 functions deleted, 376 kept)
 
 CPU time for CABS singles                        0.17 sec

 CABS-singles contribution of  -0.01591749 patched into reference energy.
 New reference energy        -263.78661216
 
 AO(A)-basis ORBITAL           loaded. Number of functions:     230
 RI(R)-basis CC-PVTZ/JKFIT     loaded. Number of functions:     376
 DF-basis AUG-CC-PVTZ/MP2FIT   loaded. Number of functions:     516

 Screening thresholds:   THRAO=  1.00D-10  THRMO=  1.00D-09  THRPROD=  1.00D-09
                         THRSW=  1.00D-05  THROV=  1.00D-12  THRF12=   1.00D-08

 CPU time for 3-index integral evaluation         3.11 sec
 CPU time for first  half transformation          0.32 sec ( 8610.9 MFLOP/sec)
 CPU time for second half transformation          0.04 sec ( 2881.1 MFLOP/sec)
 CPU time for sorting                             0.17 sec
 CPU time for fitting                             0.06 sec (23217.5 MFLOP/sec)
 CPU time for tilde quantities                    0.09 sec (20543.1 MFLOP/sec)
 CPU time for assembly                            0.86 sec (26948.2 MFLOP/sec)
 CPU time for tranop_f12                          1.05 sec (28051.5 MFLOP/sec)
 CPU time for f12 integrals (total)               8.08 sec
 F12-matrices built in  3 passes.
 F12-matrices built in  3 passes.
 F12-matrices built in  3 passes.
 F12-matrices built in  3 passes.
 FC-matrix built in  3 passes.
 CPU time for f12 matrices (total)                0.64 sec

 Diagonal F12 approximation with fixed coefficients:  TSING= 0.500,  TTRIP= 0.250 (scaled by -1/beta)

 DF-MP2-F12 energy corrections:
 ------------------------------
 Approx.                                    Singlet             Triplet             Total
 DF-MP2-F12/3*C(DX,FIX)                -0.097414763376     -0.016929367515     -0.114344130892
 DF-MP2-F12/3*C(FIX)                   -0.079841403088     -0.013394041475     -0.093235444563
 DF-MP2-F12/3C(FIX)                    -0.080203929936     -0.013418891037     -0.093622820974

 DF-MP2-F12 correlation energies:
 --------------------------------
 Approx.                                    Singlet             Triplet             Ecorr            Total Energy
 DF-MP2                                -0.537675746165     -0.343139724049     -0.880815470215   -264.667427626809
 DF-MP2-F12/3*C(DX,FIX)                -0.635090509542     -0.360069091565     -0.995159601106   -264.781771757700
 DF-MP2-F12/3*C(FIX)                   -0.617517149253     -0.356533765525     -0.974050914778   -264.760663071372
 DF-MP2-F12/3C(FIX)                    -0.617879676102     -0.356558615087     -0.974438291189   -264.761050447782

 SCS-DF-MP2 energies (F_SING= 1.20000  F_TRIP= 0.62222  F_PARALLEL= 0.33333):
 ----------------------------------------------------------------------------
 SCS-DF-MP2                            -0.858720057029   -264.645332213623
 SCS-DF-MP2-F12/3*C(DX,FIX)            -0.986151601757   -264.772763758351
 SCS-DF-MP2-F12/3*C(FIX)               -0.962863810986   -264.749475967579
 SCS-DF-MP2-F12/3C(FIX)                -0.963314305154   -264.749926461748

 Symmetry restored.
 Symmetry transformation completed.

 Number of N-1 electron functions:              12
 Number of N-2 electron functions:              78
 Number of singly external CSFs:              1476
 Number of doubly external CSFs:           1686804
 Total number of CSFs:                     1688281

 Pair and operator lists are different

 Length of J-op  integral file:             466.42 MB
 Length of K-op  integral file:             526.62 MB
 Length of 3-ext integral record:             0.00 MB

 Memory could be reduced to 76.61 Mwords without degradation in triples

 Integral transformation finished. Total CPU:   6.41 sec, npass=  1  Memory used:  24.61 MW

 Reference energy:                   -263.78661216

 Adding F12 terms to K(Cij), methodcc=6,  factor=1.0

 ITER.      SQ.NORM     CORR.ENERGY   TOTAL ENERGY   ENERGY CHANGE        DEN1      VAR(S)    VAR(P)  DIIS     TIME
   1      1.20210042    -0.86278691  -264.64939907     0.01804458     0.04662964  0.72D-02  0.55D-02  1  1    20.75
   2      1.21639937    -0.85857985  -264.64519200     0.00420707    -0.02012887  0.87D-04  0.59D-03  2  2    25.06
   3      1.22176203    -0.85868012  -264.64529228    -0.00010027    -0.00236563  0.13D-03  0.32D-04  3  3    29.00
   4      1.22456513    -0.85855269  -264.64516484     0.00012743    -0.00141133  0.76D-05  0.41D-05  4  4    33.35
   5      1.22559479    -0.85851509  -264.64512725     0.00003760    -0.00036583  0.56D-06  0.28D-06  5  5    37.48
   6      1.22575688    -0.85848822  -264.64510038     0.00002687    -0.00000804  0.40D-07  0.24D-07  6  6    41.66
   7      1.22578625    -0.85848580  -264.64509796     0.00000242    -0.00000622  0.26D-08  0.40D-08  6  4    45.30
   8      1.22578657    -0.85848531  -264.64509746     0.00000049     0.00000193  0.40D-09  0.27D-09  6  1    48.77
   9      1.22578718    -0.85848537  -264.64509753    -0.00000007     0.00000056  0.27D-10  0.22D-10  6  2    52.24

 Norm of t1 vector:      0.10597768      S-energy:    -0.00000003      T1 diagnostic:  0.01529656
                                                                       D1 diagnostic:  0.04504418

 Adding energy correction from Wij-K(Fij), methodcc=6  factor=1.0
 
  CCSD correlation energy              -0.858485374181
  MP2-F12 correction (uncoupled)       -0.092465527420
  C*T doubles correction               -0.001473033095
  f12b correction                       0.015405085623


 Total CPU time for triples:     81.21 sec


 RESULTS
 =======

  Reference energy                   -263.770694662123
  F12 singles correction               -0.015917494472

 F12 singles corrections added to reference energy

  New reference energy               -263.786612156594

  F12a singlet correction              -0.080401940297
  F12a triplet correction              -0.013536620217
  F12a total correction                -0.093938560515

 F12a corrections for ansatz F12/3C(FIX) added to CCSD energy
 
  CCSD-F12a singlet pair energy        -0.641807376684
  CCSD-F12a triplet pair energy        -0.310616530717
  CCSD-F12a correlation energy         -0.952423934695

  Triples (T) contribution             -0.037648861084
  Total correlation energy             -0.990072795779

  CCSD-F12a total energy             -264.739036091290
  CCSD[T]-F12a energy                -264.779224857327
  CCSD-T-F12a energy                 -264.775749768693
 !CCSD(T)-F12a total energy          -264.776684952374

 F12b corrections for ansatz F12/3C(FIX) added to CCSD(T)-F12a energy

  CCSD-F12b singlet pair energy        -0.627625917100
  CCSD-F12b triplet pair energy        -0.309392904679
  CCSD-F12b correlation energy         -0.937018849073

  Triples (T) contribution             -0.037648861084
  Total correlation energy             -0.974667710157

  CCSD-F12b total energy             -264.723631005667
  CCSD[T]-F12b energy                -264.763819771705
  CCSD-T-F12b energy                 -264.760344683070
 !CCSD(T)-F12b total energy          -264.761279866751

 Timing summary (sec):

 STEP                 CPU(USER)    SYS     CPU(TOT)    WALL
 Transformation          6.45      0.68      7.13      7.13
 CCSD iterations        35.21      2.33     37.54     37.58
 Triples                81.21      1.50     82.71     82.68
 MP2-F12                10.60      1.35     11.95     14.46
 F12b energy             2.26      0.04      2.30      2.31

 Program statistics:

 Available memory in ccsd:                99998934
 Min. memory needed in ccsd:               4458306
 Max. memory used in ccsd:                 5958390
 Max. memory used in cckext:               6352469 (10 integral passes)



 **********************************************************************************************************************************
 DATASETS  * FILE   NREC   LENGTH (MB)   RECORD NAMES
              1      20      269.66       500      610      700      900      950      970     1000      129      960     1100   
                                          VAR    BASINP    GEOM    SYMINP    ZMAT    AOBASIS   BASIS     P2S    ABASIS      S 
                                         1400     1410     1200     1210     1080     1600     1650     1700      960(1)  1380   
                                           T        V       H0       H01     AOSYM     SMH    MOLCAS    OPER    ABASIS    JKOP   

              2       5        1.55       700     1000     2100     7360     7350   
                                         GEOM     BASIS     RHF    F12ABS    EF12   

 PROGRAMS   *        TOTAL   CCSD(T)        HF       INT
 CPU TIMES  *       149.97    135.80      4.75      9.33
 REAL TIME  *       160.34 SEC
 DISK USED  *         2.58 GB      
 SF USED    *         1.53 GB      
 GA USED    *         2.40 MB       (max)       0.00 MB       (current)
 **********************************************************************************************************************************

     CCSD(T)-F12        HF-SCF  
   -264.76127987   -263.77069466
 **********************************************************************************************************************************
 Variable memory released
