
 Primary working directories    : /scratch/kee
 Secondary working directories  : /scratch/kee
 Wavefunction directory         : /home/kee/wfu/
 Main file repository           : /scratch/kee/

 ARCHNAME  : Linux/x86_64
 FC        : /opt/intel/composer_xe_2015.0.090/bin/intel64/ifort
 FCVERSION : 15.0.0
 BLASLIB   : -L/opt/intel/mkl/lib/intel64 -lmkl_intel_ilp64 -lmkl_sequential -lmkl_core
 id        : emory

 Nodes     nprocs
 node24       3
 Number of processes for MPI-2 version of Molpro:   nprocs(total)=    4   nprocs(compute)=    3   nprocs(helper)=    1
 ga_uses_ma=false, calling ma_init with nominal heap.
 GA-space will be limited to   8.0 MW (determined by -G option)

 Using customized tuning parameters: mindgm=7; mindgv=32; mindgc=1; mindgr=1; noblas=0; mincuda=1000; minvec=7
 default implementation of scratch files=sf  

 ***,co2h2o
 memory,100,m
 basis avtz
 geomtype = xyz
 geometry = {
 6
       0.00000777
 O    10.97257393   -1.10347931    0.00000000
 O    11.76744404    1.08065151   -0.00000000
 O     6.19356282    0.00000000    0.00000000
 H     5.44556774    0.58340495    0.10287003
 H     6.94598802    0.58686026    0.10347930
 C    11.34356282    0.00000000    0.00000000
 }
 hf
 ccsd(t)-f12
 ---

 Variables initialized (665), CPU time= 0.00 sec
 Commands  initialized (462), CPU time= 0.01 sec, 486 directives.
 Default parameters read. Elapsed time= 0.04 sec

 Checking input...
 Passed
1


                                         ***  PROGRAM SYSTEM MOLPRO  ***
                         Copyright, University College Cardiff Consultants Limited, 2008

                                    Version 2010.1 linked 9 Dec 2014 15:06:28 


 **********************************************************************************************************************************
 LABEL *   co2h2o                                                                        
 Linux-2.6.32-504.el6.x86_64/node24(x86_64) 64 bit mpp version                           DATE: 18-Jan-17          TIME: 21:13:23  
 **********************************************************************************************************************************

 Patch level:      19
 **********************************************************************************************************************************

 Variable memory set to  100000000 words,  buffer space   230000 words

 SETTING BASIS          =    AVTZ
 SETTING GEOMTYPE       =    XYZ

Geometry recognized as XYZ



 Recomputing integrals since basis changed


 Using spherical harmonics

 Library entry O      S aug-cc-pVTZ          selected for orbital group  1
 Library entry O      P aug-cc-pVTZ          selected for orbital group  1
 Library entry O      D aug-cc-pVTZ          selected for orbital group  1
 Library entry O      F aug-cc-pVTZ          selected for orbital group  1
 Library entry H      S aug-cc-pVTZ          selected for orbital group  2
 Library entry H      P aug-cc-pVTZ          selected for orbital group  2
 Library entry H      D aug-cc-pVTZ          selected for orbital group  2
 Library entry C      S aug-cc-pVTZ          selected for orbital group  3
 Library entry C      P aug-cc-pVTZ          selected for orbital group  3
 Library entry C      D aug-cc-pVTZ          selected for orbital group  3
 Library entry C      F aug-cc-pVTZ          selected for orbital group  3

1PROGRAM * SEWARD (Integral evaluation for generally contracted gaussian basis sets)     Author: Roland Lindh, 1990

 Geometry written to block  1 of record 700


 Point group  C1  



 ATOMIC COORDINATES

 NR  ATOM    CHARGE       X              Y              Z

   1  O       8.00   20.735159684   -2.085273688    0.000000000
   2  O       8.00   22.237246502    2.042135397    0.000000000
   3  O       8.00   11.704137508    0.000000000    0.000000000
   4  H       1.00   10.290631659    1.102475579    0.194396184
   5  H       1.00   13.126015070    1.109005169    0.195547537
   6  C       6.00   21.436227084    0.000000000    0.000000000

 Bond lengths in Bohr (Angstrom)

 1-6  2.199968602  2-6  2.193615529  3-4  1.803119814  3-5  1.813799081
     (1.164173245)     (1.160811343)     (0.954169911)     (0.959821135)

 Bond angles

  1-6-2  177.16520951   4-3-5  103.24222917

 NUCLEAR CHARGE:                   32
 NUMBER OF PRIMITIVE AOS:         322
 NUMBER OF SYMMETRY AOS:          282
 NUMBER OF CONTRACTIONS:          230   ( 230A   )
 NUMBER OF CORE ORBITALS:           4   (   4A   )
 NUMBER OF VALENCE ORBITALS:       18   (  18A   )


 NUCLEAR REPULSION ENERGY   89.76702357


 Eigenvalues of metric

         1 0.308E-03 0.343E-03 0.366E-03 0.385E-03 0.895E-03 0.919E-03 0.126E-02 0.165E-02


 Contracted 2-electron integrals neglected if value below      1.0D-11
 AO integral compression algorithm  1   Integral accuracy      1.0D-11

     722.207 MB (compressed) written to integral file ( 22.1%)

     Node minimum: 228.852 MB, node maximum: 256.115 MB


 NUMBER OF SORTED TWO-ELECTRON INTEGRALS:  117629820.     BUFFER LENGTH:  32768
 NUMBER OF SEGMENTS:   8  SEGMENT LENGTH:   15997437      RECORD LENGTH: 524288

 Memory used in sort:      16.55 MW

 SORT1 READ   408295925. AND WROTE    56055392. INTEGRALS IN    164 RECORDS. CPU TIME:     4.39 SEC, REAL TIME:     5.01 SEC
 SORT2 READ   168373247. AND WROTE   352862895. INTEGRALS IN   2931 RECORDS. CPU TIME:     1.49 SEC, REAL TIME:     1.97 SEC

 Node minimum:   117612110.  Node maximum:   117629820. integrals

 OPERATOR DM      FOR CENTER  0  COORDINATES:    0.000000    0.000000    0.000000


 **********************************************************************************************************************************
 DATASETS  * FILE   NREC   LENGTH (MB)   RECORD NAMES
              1      18        4.62       500      610      700      900      950      970     1000      129      960     1100   
                                          VAR    BASINP    GEOM    SYMINP    ZMAT    AOBASIS   BASIS     P2S    ABASIS      S 
                                         1400     1410     1200     1210     1080     1600     1650     1700   
                                           T        V       H0       H01     AOSYM     SMH    MOLCAS    OPER   

 PROGRAMS   *        TOTAL       INT
 CPU TIMES  *        10.21     10.14
 REAL TIME  *        11.78 SEC
 DISK USED  *         2.70 GB      
 GA USED    *         0.00 MB       (max)       0.00 MB       (current)
 **********************************************************************************************************************************

1PROGRAM * RHF-SCF (CLOSED SHELL)       Authors: W. Meyer, H.-J. Werner


 NUMBER OF ELECTRONS:      16+   16-    SPACE SYMMETRY=1    SPIN SYMMETRY=Singlet 
 CONVERGENCE THRESHOLDS:    1.00E-05 (Density)    1.00E-07 (Energy)
 MAX. NUMBER OF ITERATIONS:       60
 INTERPOLATION TYPE:            DIIS
 INTERPOLATION STEPS:              2 (START)      1 (STEP)
 LEVEL SHIFTS:                  0.00 (CLOSED)  0.00 (OPEN) 



 Orbital guess generated from atomic densities. Full valence occupancy:   22

 Molecular orbital dump at record        2100.2

 ITERATION    DDIFF          GRAD             ENERGY        2-EL.EN.            DIPOLE MOMENTS         DIIS
    1      0.000D+00      0.000D+00      -263.65840727    374.799633   -0.06867    1.17017    0.19887    0
    2      0.000D+00      0.470D-02      -263.72411647    370.323687   -0.02032    0.64034    0.11463    1
    3      0.754D-02      0.320D-02      -263.76809169    372.865490   -0.03568    0.78150    0.13491    2
    4      0.311D-02      0.301D-03      -263.76858959    372.652144   -0.03617    0.78016    0.13584    3
    5      0.356D-03      0.882D-04      -263.76864864    372.656083   -0.03494    0.77859    0.13484    4
    6      0.134D-03      0.361D-04      -263.76865612    372.670299   -0.03562    0.77696    0.13498    5
    7      0.448D-04      0.928D-05      -263.76865691    372.662705   -0.03526    0.77767    0.13491    6
    8      0.151D-04      0.288D-05      -263.76865697    372.663086   -0.03549    0.77706    0.13491    7
    9      0.431D-05      0.181D-05      -263.76865698    372.663630   -0.03536    0.77744    0.13491    0

 Final occupancy:  16

 !RHF STATE 1.1 Energy               -263.768656975550
 Nuclear energy                        89.76702357
 One-electron energy                 -539.86749571
 Two-electron energy                  186.33181516
 Virial quotient                       -1.00179408
 !RHF STATE 1.1 Dipole moment          -0.03535856     0.77744205     0.13491157
 Dipole moment /Debye                  -0.08986662     1.97593116     0.34288856

 Orbital energies:

         1.1          2.1          3.1          4.1          5.1          6.1          7.1          8.1          9.1         10.1
    -20.655696   -20.654012   -20.569606   -11.463560    -1.532400    -1.478999    -1.356553    -0.802560    -0.744558    -0.717514

        11.1         12.1         13.1         14.1         15.1         16.1         17.1         18.1
     -0.716417    -0.716353    -0.589229    -0.545956    -0.545932    -0.512587     0.026816     0.043653


 **********************************************************************************************************************************
 DATASETS  * FILE   NREC   LENGTH (MB)   RECORD NAMES
              1      18        4.62       500      610      700      900      950      970     1000      129      960     1100   
                                          VAR    BASINP    GEOM    SYMINP    ZMAT    AOBASIS   BASIS     P2S    ABASIS      S 
                                         1400     1410     1200     1210     1080     1600     1650     1700   
                                           T        V       H0       H01     AOSYM     SMH    MOLCAS    OPER   

              2       3        1.44       700     1000     2100   
                                         GEOM     BASIS     RHF  

 PROGRAMS   *        TOTAL        HF       INT
 CPU TIMES  *        21.37     11.16     10.14
 REAL TIME  *        23.34 SEC
 DISK USED  *         2.73 GB      
 SF USED    *         0.21 MB      
 GA USED    *         0.00 MB       (max)       0.00 MB       (current)
 **********************************************************************************************************************************


1PROGRAM * CCSD (Closed-shell coupled cluster)     Authors: C. Hampel, H.-J. Werner, 1991, M. Deegan, P.J. Knowles, 1992

                                  CCSD-F12 implementation by  H.-J. Werner, 2007

                   Density fitting integral evaluation by F.R. Manby, 2003,2007, G. Knizia, 2010

 Basis set CC-PVTZ/JKFIT generated.      Number of basis functions:   376 
 Basis set AUG-CC-PVTZ/MP2FIT generated. Number of basis functions:   516 

 Convergence thresholds:  THRVAR = 1.00D-08  THRDEN = 1.00D-06

 CCSD(T)     terms to be evaluated (factor= 1.000)


 Number of core orbitals:           4 (   4 )
 Number of closed-shell orbitals:  12 (  12 )
 Number of external orbitals:     214 ( 214 )

 Molecular orbitals read from record     2100.2  Type=RHF/CANONICAL (state 1.1)

 MP2-F12 correlation treatment (H.-J. Werner, 2006)
 --------------------------------------------------

 Using MP2-F12 with ansatz 3C(FIX)

 Using projected zeroth-order Hamiltonian (+Z)

 FOCKRIB=T FOCKRIC=T FOCKRIP=T CABSP=T CABSA=T CABSK=T CABSF=T GBC=F EBC=F DMAT=T NOFIK=T NOPAO=1 SOLVE=-1  USEPAO=0
 EXCH_A= T EXCH_B= F EXCH_C= F EXCH_P= F
 
 Geminal basis:    OPTFULL  GEM_TYPE=SLATER  BETA=1.0  NGEM=6

 Optimizing Gaussian exponents for each gem_beta

 Geminal optimization for beta= 1.0000
 Weight function:   m=0, omega= 1.4646

 Augmented Hessian optimization of geminal fit. Trust ratio= 0.40000
 Convergence reached after   2 iterations. Final gradient= 8.24D-16, Step= 4.32D-06, Delta= 1.28D-09
 
 Alpha:                 0.19532     0.81920     2.85917     9.50073    35.69989   197.79328
 Coeff:                 0.27070     0.30552     0.18297     0.10986     0.06810     0.04224
 

 All pairs explicitly correlated. Number of r12-pairs:           78
 
 AO(A)-basis ORBITAL           loaded. Number of functions:     230
 RI(R)-basis CC-PVTZ/JKFIT     loaded. Number of functions:     376
 DF-basis CC-PVTZ/JKFIT        loaded. Number of functions:     376

 Screening thresholds:   THRAO=  1.00D-10  THRMO=  1.00D-09  THRPROD=  1.00D-09
                         THRSW=  1.00D-05  THROV=  1.00D-12  THRF12=   1.00D-08

 CPU time for Fock operators                      1.02 sec
 
 Construction of ABS:
 Smallest eigenvalue of S          2.58E-04  (threshold= 1.00E-08)
 Ratio eigmin/eigmax               1.84E-06  (threshold= 1.00E-09)
 Smallest eigenvalue of S kept     2.58E-04  (threshold= 2.58E-04, 0 functions deleted, 376 kept)
 
 Construction of CABS:
 Smallest eigenvalue of S          2.29E-08  (threshold= 1.00E-08)
 Ratio eigmin/eigmax               2.29E-08  (threshold= 1.00E-09)
 Smallest eigenvalue of S kept     2.29E-08  (threshold= 2.29E-08, 0 functions deleted, 376 kept)
 
 CPU time for CABS singles                        0.18 sec

 CABS-singles contribution of  -0.01593342 patched into reference energy.
 New reference energy        -263.78459040
 
 AO(A)-basis ORBITAL           loaded. Number of functions:     230
 RI(R)-basis CC-PVTZ/JKFIT     loaded. Number of functions:     376
 DF-basis AUG-CC-PVTZ/MP2FIT   loaded. Number of functions:     516

 Screening thresholds:   THRAO=  1.00D-10  THRMO=  1.00D-09  THRPROD=  1.00D-09
                         THRSW=  1.00D-05  THROV=  1.00D-12  THRF12=   1.00D-08

 CPU time for 3-index integral evaluation         2.42 sec
 CPU time for first  half transformation          0.37 sec ( 7155.1 MFLOP/sec)
 CPU time for second half transformation          0.04 sec ( 2696.6 MFLOP/sec)
 CPU time for sorting                             0.19 sec
 CPU time for fitting                             0.05 sec (27690.6 MFLOP/sec)
 CPU time for tilde quantities                    0.06 sec (30814.7 MFLOP/sec)
 CPU time for assembly                            0.90 sec (25725.4 MFLOP/sec)
 CPU time for tranop_f12                          0.94 sec (31262.5 MFLOP/sec)
 CPU time for f12 integrals (total)               7.28 sec
 F12-matrices built in  3 passes.
 F12-matrices built in  3 passes.
 F12-matrices built in  3 passes.
 F12-matrices built in  3 passes.
 FC-matrix built in  3 passes.
 CPU time for f12 matrices (total)                0.52 sec

 Diagonal F12 approximation with fixed coefficients:  TSING= 0.500,  TTRIP= 0.250 (scaled by -1/beta)

 DF-MP2-F12 energy corrections:
 ------------------------------
 Approx.                                    Singlet             Triplet             Total
 DF-MP2-F12/3*C(DX,FIX)                -0.097408546119     -0.016927884826     -0.114336430945
 DF-MP2-F12/3*C(FIX)                   -0.079821318569     -0.013389840905     -0.093211159475
 DF-MP2-F12/3C(FIX)                    -0.080183851971     -0.013414882751     -0.093598734722

 DF-MP2-F12 correlation energies:
 --------------------------------
 Approx.                                    Singlet             Triplet             Ecorr            Total Energy
 DF-MP2                                -0.537920814494     -0.343277198123     -0.881198012617   -264.665788410448
 DF-MP2-F12/3*C(DX,FIX)                -0.635329360612     -0.360205082950     -0.995534443562   -264.780124841393
 DF-MP2-F12/3*C(FIX)                   -0.617742133063     -0.356667039029     -0.974409172092   -264.758999569922
 DF-MP2-F12/3C(FIX)                    -0.618104666464     -0.356692080875     -0.974796747339   -264.759387145170

 SCS-DF-MP2 energies (F_SING= 1.20000  F_TRIP= 0.62222  F_PARALLEL= 0.33333):
 ----------------------------------------------------------------------------
 SCS-DF-MP2                            -0.859099678447   -264.643690076278
 SCS-DF-MP2-F12/3*C(DX,FIX)            -0.986522839903   -264.771113237734
 SCS-DF-MP2-F12/3*C(FIX)               -0.963216717293   -264.747807115124
 SCS-DF-MP2-F12/3C(FIX)                -0.963667338968   -264.748257736799
 Symmetry transformation completed.

 Number of N-1 electron functions:              12
 Number of N-2 electron functions:              78
 Number of singly external CSFs:              2568
 Number of doubly external CSFs:           3298596
 Total number of CSFs:                     3301165

 Pair and operator lists are different

 Length of J-op  integral file:             474.22 MB
 Length of K-op  integral file:             572.29 MB
 Length of 3-ext integral record:             0.00 MB

 For full I/O caching in triples, increase memory by 50.81 Mwords to 151.09 Mwords.

 Integral transformation finished. Total CPU:  13.55 sec, npass=  1  Memory used:  87.46 MW

 Reference energy:                   -263.78459040

 Adding F12 terms to K(Cij), methodcc=6,  factor=1.0

 ITER.      SQ.NORM     CORR.ENERGY   TOTAL ENERGY   ENERGY CHANGE        DEN1      VAR(S)    VAR(P)  DIIS     TIME
   1      1.20226570    -0.86308958  -264.64767998     0.01812433     0.04682257  0.72D-02  0.56D-02  1  1    32.28
   2      1.21661311    -0.85884254  -264.64343294     0.00424704    -0.02019986  0.86D-04  0.59D-03  2  2    41.67
   3      1.22197538    -0.85893783  -264.64352823    -0.00009529    -0.00235598  0.13D-03  0.33D-04  3  3    51.10
   4      1.22478851    -0.85880891  -264.64339930     0.00012893    -0.00141463  0.76D-05  0.41D-05  4  4    60.51
   5      1.22582401    -0.85877078  -264.64336117     0.00003813    -0.00036784  0.56D-06  0.29D-06  5  5    69.95
   6      1.22598655    -0.85874391  -264.64333431     0.00002686    -0.00000769  0.40D-07  0.24D-07  6  6    79.38
   7      1.22601598    -0.85874148  -264.64333187     0.00000244    -0.00000613  0.27D-08  0.41D-08  6  4    88.91
   8      1.22601636    -0.85874098  -264.64333138     0.00000050     0.00000194  0.40D-09  0.28D-09  6  1    98.41
   9      1.22601695    -0.85874105  -264.64333144    -0.00000007     0.00000059  0.29D-10  0.23D-10  6  2   107.87

 Norm of t1 vector:      0.10612479      S-energy:     0.00000114      T1 diagnostic:  0.01531779
                                                                       D1 diagnostic:  0.04500603

 Adding energy correction from Wij-K(Fij), methodcc=6  factor=1.0
 
  CCSD correlation energy              -0.858741045038
  MP2-F12 correction (uncoupled)       -0.092439044504
  C*T doubles correction               -0.001477210514
  f12b correction                       0.015402980110


 Total CPU time for triples:    220.00 sec


 RESULTS
 =======

  Reference energy                   -263.768656975550
  F12 singles correction               -0.015933422281

 F12 singles corrections added to reference energy

  New reference energy               -263.784590397831

  F12a singlet correction              -0.080384126870
  F12a triplet correction              -0.013532128148
  F12a total correction                -0.093916255018

 F12a corrections for ansatz F12/3C(FIX) added to CCSD energy
 
  CCSD-F12a singlet pair energy        -0.642014855440
  CCSD-F12a triplet pair energy        -0.310643586860
  CCSD-F12a correlation energy         -0.952657300056

  Triples (T) contribution             -0.037699672228
  Total correlation energy             -0.990356972284

  CCSD-F12a total energy             -264.737247697887
  CCSD[T]-F12a energy                -264.777500042357
  CCSD-T-F12a energy                 -264.774006680688
 !CCSD(T)-F12a total energy          -264.774947370115

 F12b corrections for ansatz F12/3C(FIX) added to CCSD(T)-F12a energy

  CCSD-F12b singlet pair energy        -0.627834960068
  CCSD-F12b triplet pair energy        -0.309420502123
  CCSD-F12b correlation energy         -0.937254319946

  Triples (T) contribution             -0.037699672228
  Total correlation energy             -0.974953992175

  CCSD-F12b total energy             -264.721844717777
  CCSD[T]-F12b energy                -264.762097062248
  CCSD-T-F12b energy                 -264.758603700578
 !CCSD(T)-F12b total energy          -264.759544390005

 Timing summary (sec):

 STEP                 CPU(USER)    SYS     CPU(TOT)    WALL
 Transformation         13.66      1.15     14.81     14.81
 CCSD iterations        84.58      3.11     87.69     87.79
 Triples               220.00      2.23    222.23    223.09
 MP2-F12                 9.65      1.27     10.92     10.91
 F12b energy             6.55      0.07      6.62      6.62

 Program statistics:

 Available memory in ccsd:                99998934
 Min. memory needed in ccsd:               8644845
 Max. memory used in ccsd:                11598633
 Max. memory used in cckext:               8768967 (10 integral passes)



 **********************************************************************************************************************************
 DATASETS  * FILE   NREC   LENGTH (MB)   RECORD NAMES
              1      20      527.84       500      610      700      900      950      970     1000      129      960     1100   
                                          VAR    BASINP    GEOM    SYMINP    ZMAT    AOBASIS   BASIS     P2S    ABASIS      S 
                                         1400     1410     1200     1210     1080     1600     1650     1700      960(1)  1380   
                                           T        V       H0       H01     AOSYM     SMH    MOLCAS    OPER    ABASIS    JKOP   

              2       5        2.50       700     1000     2100     7360     7350   
                                         GEOM     BASIS     RHF    F12ABS    EF12   

 PROGRAMS   *        TOTAL   CCSD(T)        HF       INT
 CPU TIMES  *       355.93    334.56     11.16     10.14
 REAL TIME  *       366.99 SEC
 DISK USED  *         3.59 GB      
 SF USED    *         1.91 GB      
 GA USED    *         2.40 MB       (max)       0.00 MB       (current)
 **********************************************************************************************************************************

     CCSD(T)-F12        HF-SCF  
   -264.75954439   -263.76865698
 **********************************************************************************************************************************
 Variable memory released
