
 Primary working directories    : /scratch/kee
 Secondary working directories  : /scratch/kee
 Wavefunction directory         : /home/kee/wfu/
 Main file repository           : /scratch/kee/

 ARCHNAME  : Linux/x86_64
 FC        : /opt/intel/composer_xe_2015.0.090/bin/intel64/ifort
 FCVERSION : 15.0.0
 BLASLIB   : -L/opt/intel/mkl/lib/intel64 -lmkl_intel_ilp64 -lmkl_sequential -lmkl_core
 id        : emory

 Nodes     nprocs
 node24       3
 Number of processes for MPI-2 version of Molpro:   nprocs(total)=    4   nprocs(compute)=    3   nprocs(helper)=    1
 ga_uses_ma=false, calling ma_init with nominal heap.
 GA-space will be limited to   8.0 MW (determined by -G option)

 Using customized tuning parameters: mindgm=7; mindgv=32; mindgc=1; mindgr=1; noblas=0; mincuda=1000; minvec=7
 default implementation of scratch files=sf  

 ***,co2h2o
 memory,100,m
 basis avtz
 geomtype = xyz
 geometry = {
 6
       0.00000777
 O    10.97257393   -1.10347931    0.00000000
 O    11.76744404    1.08065151   -0.00000000
 O     6.34356282    0.00000000    0.00000000
 H     5.59556774    0.58340495    0.10287003
 H     7.09598802    0.58686026    0.10347930
 C    11.34356282    0.00000000    0.00000000
 }
 hf
 ccsd(t)-f12
 ---

 Variables initialized (665), CPU time= 0.00 sec
 Commands  initialized (462), CPU time= 0.01 sec, 486 directives.
 Default parameters read. Elapsed time= 0.04 sec

 Checking input...
 Passed
1


                                         ***  PROGRAM SYSTEM MOLPRO  ***
                         Copyright, University College Cardiff Consultants Limited, 2008

                                    Version 2010.1 linked 9 Dec 2014 15:06:28 


 **********************************************************************************************************************************
 LABEL *   co2h2o                                                                        
 Linux-2.6.32-504.el6.x86_64/node24(x86_64) 64 bit mpp version                           DATE: 18-Jan-17          TIME: 20:53:38  
 **********************************************************************************************************************************

 Patch level:      19
 **********************************************************************************************************************************

 Variable memory set to  100000000 words,  buffer space   230000 words

 SETTING BASIS          =    AVTZ
 SETTING GEOMTYPE       =    XYZ

Geometry recognized as XYZ



 Recomputing integrals since basis changed


 Using spherical harmonics

 Library entry O      S aug-cc-pVTZ          selected for orbital group  1
 Library entry O      P aug-cc-pVTZ          selected for orbital group  1
 Library entry O      D aug-cc-pVTZ          selected for orbital group  1
 Library entry O      F aug-cc-pVTZ          selected for orbital group  1
 Library entry H      S aug-cc-pVTZ          selected for orbital group  2
 Library entry H      P aug-cc-pVTZ          selected for orbital group  2
 Library entry H      D aug-cc-pVTZ          selected for orbital group  2
 Library entry C      S aug-cc-pVTZ          selected for orbital group  3
 Library entry C      P aug-cc-pVTZ          selected for orbital group  3
 Library entry C      D aug-cc-pVTZ          selected for orbital group  3
 Library entry C      F aug-cc-pVTZ          selected for orbital group  3

1PROGRAM * SEWARD (Integral evaluation for generally contracted gaussian basis sets)     Author: Roland Lindh, 1990

 Geometry written to block  1 of record 700


 Point group  C1  



 ATOMIC COORDINATES

 NR  ATOM    CHARGE       X              Y              Z

   1  O       8.00   20.735159684   -2.085273688    0.000000000
   2  O       8.00   22.237246502    2.042135397    0.000000000
   3  O       8.00   11.987596427    0.000000000    0.000000000
   4  H       1.00   10.574090578    1.102475579    0.194396184
   5  H       1.00   13.409473990    1.109005169    0.195547537
   6  C       6.00   21.436227084    0.000000000    0.000000000

 Bond lengths in Bohr (Angstrom)

 1-6  2.199968602  2-6  2.193615529  3-4  1.803119814  3-5  1.813799081
     (1.164173245)     (1.160811343)     (0.954169911)     (0.959821135)

 Bond angles

  1-6-2  177.16520951   4-3-5  103.24222917

 NUCLEAR CHARGE:                   32
 NUMBER OF PRIMITIVE AOS:         322
 NUMBER OF SYMMETRY AOS:          282
 NUMBER OF CONTRACTIONS:          230   ( 230A   )
 NUMBER OF CORE ORBITALS:           4   (   4A   )
 NUMBER OF VALENCE ORBITALS:       18   (  18A   )


 NUCLEAR REPULSION ENERGY   90.41829583


 Eigenvalues of metric

         1 0.302E-03 0.342E-03 0.362E-03 0.383E-03 0.893E-03 0.917E-03 0.120E-02 0.164E-02


 Contracted 2-electron integrals neglected if value below      1.0D-11
 AO integral compression algorithm  1   Integral accuracy      1.0D-11

     745.013 MB (compressed) written to integral file ( 22.7%)

     Node minimum: 241.435 MB, node maximum: 258.998 MB


 NUMBER OF SORTED TWO-ELECTRON INTEGRALS:  117629820.     BUFFER LENGTH:  32768
 NUMBER OF SEGMENTS:   8  SEGMENT LENGTH:   15997437      RECORD LENGTH: 524288

 Memory used in sort:      16.55 MW

 SORT1 READ   409383473. AND WROTE    58044076. INTEGRALS IN    169 RECORDS. CPU TIME:     4.18 SEC, REAL TIME:     4.73 SEC
 SORT2 READ   174352076. AND WROTE   352862895. INTEGRALS IN   2964 RECORDS. CPU TIME:     1.76 SEC, REAL TIME:     2.17 SEC

 Node minimum:   117612110.  Node maximum:   117629820. integrals

 OPERATOR DM      FOR CENTER  0  COORDINATES:    0.000000    0.000000    0.000000


 **********************************************************************************************************************************
 DATASETS  * FILE   NREC   LENGTH (MB)   RECORD NAMES
              1      18        4.62       500      610      700      900      950      970     1000      129      960     1100   
                                          VAR    BASINP    GEOM    SYMINP    ZMAT    AOBASIS   BASIS     P2S    ABASIS      S 
                                         1400     1410     1200     1210     1080     1600     1650     1700   
                                           T        V       H0       H01     AOSYM     SMH    MOLCAS    OPER   

 PROGRAMS   *        TOTAL       INT
 CPU TIMES  *         9.95      9.88
 REAL TIME  *        11.13 SEC
 DISK USED  *         2.78 GB      
 GA USED    *         0.00 MB       (max)       0.00 MB       (current)
 **********************************************************************************************************************************

1PROGRAM * RHF-SCF (CLOSED SHELL)       Authors: W. Meyer, H.-J. Werner


 NUMBER OF ELECTRONS:      16+   16-    SPACE SYMMETRY=1    SPIN SYMMETRY=Singlet 
 CONVERGENCE THRESHOLDS:    1.00E-05 (Density)    1.00E-07 (Energy)
 MAX. NUMBER OF ITERATIONS:       60
 INTERPOLATION TYPE:            DIIS
 INTERPOLATION STEPS:              2 (START)      1 (STEP)
 LEVEL SHIFTS:                  0.00 (CLOSED)  0.00 (OPEN) 



 Orbital guess generated from atomic densities. Full valence occupancy:   22

 Molecular orbital dump at record        2100.2

 ITERATION    DDIFF          GRAD             ENERGY        2-EL.EN.            DIPOLE MOMENTS         DIIS
    1      0.000D+00      0.000D+00      -263.65826006    376.091786   -0.06856    1.17012    0.19887    0
    2      0.000D+00      0.470D-02      -263.72399562    371.619834   -0.02145    0.63692    0.11435    1
    3      0.754D-02      0.321D-02      -263.76802441    374.160781   -0.03604    0.77969    0.13472    2
    4      0.311D-02      0.301D-03      -263.76852251    373.947390   -0.03666    0.77795    0.13565    3
    5      0.357D-03      0.883D-04      -263.76858164    373.951404   -0.03534    0.77664    0.13465    4
    6      0.134D-03      0.362D-04      -263.76858916    373.965600   -0.03608    0.77485    0.13480    5
    7      0.449D-04      0.936D-05      -263.76858995    373.958083   -0.03570    0.77563    0.13473    6
    8      0.152D-04      0.296D-05      -263.76859001    373.958387   -0.03593    0.77499    0.13472    7
    9      0.436D-05      0.181D-05      -263.76859002    373.958973   -0.03580    0.77538    0.13473    0

 Final occupancy:  16

 !RHF STATE 1.1 Energy               -263.768590019223
 Nuclear energy                        90.41829583
 One-electron energy                 -541.16637247
 Two-electron energy                  186.97948662
 Virial quotient                       -1.00179335
 !RHF STATE 1.1 Dipole moment          -0.03580192     0.77537684     0.13472642
 Dipole moment /Debye                  -0.09099345     1.97068227     0.34241797

 Orbital energies:

         1.1          2.1          3.1          4.1          5.1          6.1          7.1          8.1          9.1         10.1
    -20.655815   -20.654082   -20.569776   -11.463634    -1.532498    -1.479085    -1.356720    -0.802636    -0.744622    -0.717744

        11.1         12.1         13.1         14.1         15.1         16.1         17.1         18.1
     -0.716479    -0.716438    -0.589378    -0.546034    -0.546011    -0.512747     0.026878     0.043894


 **********************************************************************************************************************************
 DATASETS  * FILE   NREC   LENGTH (MB)   RECORD NAMES
              1      18        4.62       500      610      700      900      950      970     1000      129      960     1100   
                                          VAR    BASINP    GEOM    SYMINP    ZMAT    AOBASIS   BASIS     P2S    ABASIS      S 
                                         1400     1410     1200     1210     1080     1600     1650     1700   
                                           T        V       H0       H01     AOSYM     SMH    MOLCAS    OPER   

              2       3        1.44       700     1000     2100   
                                         GEOM     BASIS     RHF  

 PROGRAMS   *        TOTAL        HF       INT
 CPU TIMES  *        20.75     10.80      9.88
 REAL TIME  *        22.36 SEC
 DISK USED  *         2.82 GB      
 SF USED    *         0.21 MB      
 GA USED    *         0.00 MB       (max)       0.00 MB       (current)
 **********************************************************************************************************************************


1PROGRAM * CCSD (Closed-shell coupled cluster)     Authors: C. Hampel, H.-J. Werner, 1991, M. Deegan, P.J. Knowles, 1992

                                  CCSD-F12 implementation by  H.-J. Werner, 2007

                   Density fitting integral evaluation by F.R. Manby, 2003,2007, G. Knizia, 2010

 Basis set CC-PVTZ/JKFIT generated.      Number of basis functions:   376 
 Basis set AUG-CC-PVTZ/MP2FIT generated. Number of basis functions:   516 

 Convergence thresholds:  THRVAR = 1.00D-08  THRDEN = 1.00D-06

 CCSD(T)     terms to be evaluated (factor= 1.000)


 Number of core orbitals:           4 (   4 )
 Number of closed-shell orbitals:  12 (  12 )
 Number of external orbitals:     214 ( 214 )

 Molecular orbitals read from record     2100.2  Type=RHF/CANONICAL (state 1.1)

 MP2-F12 correlation treatment (H.-J. Werner, 2006)
 --------------------------------------------------

 Using MP2-F12 with ansatz 3C(FIX)

 Using projected zeroth-order Hamiltonian (+Z)

 FOCKRIB=T FOCKRIC=T FOCKRIP=T CABSP=T CABSA=T CABSK=T CABSF=T GBC=F EBC=F DMAT=T NOFIK=T NOPAO=1 SOLVE=-1  USEPAO=0
 EXCH_A= T EXCH_B= F EXCH_C= F EXCH_P= F
 
 Geminal basis:    OPTFULL  GEM_TYPE=SLATER  BETA=1.0  NGEM=6

 Optimizing Gaussian exponents for each gem_beta

 Geminal optimization for beta= 1.0000
 Weight function:   m=0, omega= 1.4646

 Augmented Hessian optimization of geminal fit. Trust ratio= 0.40000
 Convergence reached after   2 iterations. Final gradient= 8.24D-16, Step= 4.32D-06, Delta= 1.28D-09
 
 Alpha:                 0.19532     0.81920     2.85917     9.50073    35.69989   197.79328
 Coeff:                 0.27070     0.30552     0.18297     0.10986     0.06810     0.04224
 

 All pairs explicitly correlated. Number of r12-pairs:           78
 
 AO(A)-basis ORBITAL           loaded. Number of functions:     230
 RI(R)-basis CC-PVTZ/JKFIT     loaded. Number of functions:     376
 DF-basis CC-PVTZ/JKFIT        loaded. Number of functions:     376

 Screening thresholds:   THRAO=  1.00D-10  THRMO=  1.00D-09  THRPROD=  1.00D-09
                         THRSW=  1.00D-05  THROV=  1.00D-12  THRF12=   1.00D-08

 CPU time for Fock operators                      0.86 sec
 
 Construction of ABS:
 Smallest eigenvalue of S          2.58E-04  (threshold= 1.00E-08)
 Ratio eigmin/eigmax               1.84E-06  (threshold= 1.00E-09)
 Smallest eigenvalue of S kept     2.58E-04  (threshold= 2.58E-04, 0 functions deleted, 376 kept)
 
 Construction of CABS:
 Smallest eigenvalue of S          2.29E-08  (threshold= 1.00E-08)
 Ratio eigmin/eigmax               2.29E-08  (threshold= 1.00E-09)
 Smallest eigenvalue of S kept     2.29E-08  (threshold= 2.29E-08, 0 functions deleted, 376 kept)
 
 CPU time for CABS singles                        0.16 sec

 CABS-singles contribution of  -0.01593329 patched into reference energy.
 New reference energy        -263.78452331
 
 AO(A)-basis ORBITAL           loaded. Number of functions:     230
 RI(R)-basis CC-PVTZ/JKFIT     loaded. Number of functions:     376
 DF-basis AUG-CC-PVTZ/MP2FIT   loaded. Number of functions:     516

 Screening thresholds:   THRAO=  1.00D-10  THRMO=  1.00D-09  THRPROD=  1.00D-09
                         THRSW=  1.00D-05  THROV=  1.00D-12  THRF12=   1.00D-08

 CPU time for 3-index integral evaluation         2.32 sec
 CPU time for first  half transformation          0.29 sec (10397.2 MFLOP/sec)
 CPU time for second half transformation          0.01 sec (10909.3 MFLOP/sec)
 CPU time for sorting                             0.20 sec
 CPU time for fitting                             0.04 sec (34826.3 MFLOP/sec)
 CPU time for tilde quantities                    0.07 sec (26169.2 MFLOP/sec)
 CPU time for assembly                            0.80 sec (29383.3 MFLOP/sec)
 CPU time for tranop_f12                          0.84 sec (35733.2 MFLOP/sec)
 CPU time for f12 integrals (total)               6.64 sec
 F12-matrices built in  3 passes.
 F12-matrices built in  3 passes.
 F12-matrices built in  3 passes.
 F12-matrices built in  3 passes.
 FC-matrix built in  3 passes.
 CPU time for f12 matrices (total)                0.47 sec

 Diagonal F12 approximation with fixed coefficients:  TSING= 0.500,  TTRIP= 0.250 (scaled by -1/beta)

 DF-MP2-F12 energy corrections:
 ------------------------------
 Approx.                                    Singlet             Triplet             Total
 DF-MP2-F12/3*C(DX,FIX)                -0.097402857677     -0.016927115371     -0.114329973048
 DF-MP2-F12/3*C(FIX)                   -0.079816136150     -0.013389261512     -0.093205397661
 DF-MP2-F12/3C(FIX)                    -0.080178690179     -0.013414512144     -0.093593202322

 DF-MP2-F12 correlation energies:
 --------------------------------
 Approx.                                    Singlet             Triplet             Ecorr            Total Energy
 DF-MP2                                -0.537941651836     -0.343302614142     -0.881244265978   -264.665767572865
 DF-MP2-F12/3*C(DX,FIX)                -0.635344509514     -0.360229729512     -0.995574239026   -264.780097545912
 DF-MP2-F12/3*C(FIX)                   -0.617757787986     -0.356691875653     -0.974449663639   -264.758972970526
 DF-MP2-F12/3C(FIX)                    -0.618120342015     -0.356717126285     -0.974837468300   -264.759360775187

 SCS-DF-MP2 energies (F_SING= 1.20000  F_TRIP= 0.62222  F_PARALLEL= 0.33333):
 ----------------------------------------------------------------------------
 SCS-DF-MP2                            -0.859140497669   -264.643663804556
 SCS-DF-MP2-F12/3*C(DX,FIX)            -0.986556354224   -264.771079661111
 SCS-DF-MP2-F12/3*C(FIX)               -0.963250957101   -264.747774263987
 SCS-DF-MP2-F12/3C(FIX)                -0.963701733440   -264.748225040327
 Symmetry transformation completed.

 Number of N-1 electron functions:              12
 Number of N-2 electron functions:              78
 Number of singly external CSFs:              2568
 Number of doubly external CSFs:           3298596
 Total number of CSFs:                     3301165

 Pair and operator lists are different

 Length of J-op  integral file:             474.22 MB
 Length of K-op  integral file:             572.29 MB
 Length of 3-ext integral record:             0.00 MB

 For full I/O caching in triples, increase memory by 50.81 Mwords to 151.09 Mwords.

 Integral transformation finished. Total CPU:  13.01 sec, npass=  1  Memory used:  87.46 MW

 Reference energy:                   -263.78452331

 Adding F12 terms to K(Cij), methodcc=6,  factor=1.0

 ITER.      SQ.NORM     CORR.ENERGY   TOTAL ENERGY   ENERGY CHANGE        DEN1      VAR(S)    VAR(P)  DIIS     TIME
   1      1.20228146    -0.86312946  -264.64765277     0.01813062     0.04683409  0.72D-02  0.56D-02  1  1    29.78
   2      1.21663389    -0.85888126  -264.64340457     0.00424820    -0.02020610  0.86D-04  0.59D-03  2  2    38.23
   3      1.22199452    -0.85897666  -264.64349996    -0.00009540    -0.00235357  0.13D-03  0.33D-04  3  3    47.55
   4      1.22480946    -0.85884770  -264.64337101     0.00012895    -0.00141512  0.76D-05  0.41D-05  4  4    56.89
   5      1.22584540    -0.85880954  -264.64333285     0.00003816    -0.00036790  0.56D-06  0.29D-06  5  5    66.15
   6      1.22600774    -0.85878272  -264.64330602     0.00002683    -0.00000752  0.40D-07  0.24D-07  6  6    74.34
   7      1.22603710    -0.85878029  -264.64330359     0.00000243    -0.00000609  0.27D-08  0.41D-08  6  4    82.67
   8      1.22603748    -0.85877979  -264.64330309     0.00000050     0.00000195  0.41D-09  0.28D-09  6  1    90.93
   9      1.22603806    -0.85877986  -264.64330316    -0.00000007     0.00000059  0.29D-10  0.23D-10  6  2    99.21

 Norm of t1 vector:      0.10613651      S-energy:     0.00000121      T1 diagnostic:  0.01531949
                                                                       D1 diagnostic:  0.04500936

 Adding energy correction from Wij-K(Fij), methodcc=6  factor=1.0
 
  CCSD correlation energy              -0.858779855025
  MP2-F12 correction (uncoupled)       -0.092433933016
  C*T doubles correction               -0.001476818334
  f12b correction                       0.015402669052


 Total CPU time for triples:    242.69 sec


 RESULTS
 =======

  Reference energy                   -263.768590019223
  F12 singles correction               -0.015933287664

 F12 singles corrections added to reference energy

  New reference energy               -263.784523306887

  F12a singlet correction              -0.080379126118
  F12a triplet correction              -0.013531625231
  F12a total correction                -0.093910751349

 F12a corrections for ansatz F12/3C(FIX) added to CCSD energy
 
  CCSD-F12a singlet pair energy        -0.642028032419
  CCSD-F12a triplet pair energy        -0.310663782455
  CCSD-F12a correlation energy         -0.952690606374

  Triples (T) contribution             -0.037706909365
  Total correlation energy             -0.990397515740

  CCSD-F12a total energy             -264.737213913261
  CCSD[T]-F12a energy                -264.777474166061
  CCSD-T-F12a energy                 -264.773979896638
 !CCSD(T)-F12a total energy          -264.774920822626

 F12b corrections for ansatz F12/3C(FIX) added to CCSD(T)-F12a energy

  CCSD-F12b singlet pair energy        -0.627848451792
  CCSD-F12b triplet pair energy        -0.309440694030
  CCSD-F12b correlation energy         -0.937287937322

  Triples (T) contribution             -0.037706909365
  Total correlation energy             -0.974994846688

  CCSD-F12b total energy             -264.721811244209
  CCSD[T]-F12b energy                -264.762071497009
  CCSD-T-F12b energy                 -264.758577227586
 !CCSD(T)-F12b total energy          -264.759518153574

 Timing summary (sec):

 STEP                 CPU(USER)    SYS     CPU(TOT)    WALL
 Transformation         13.12      1.12     14.24     14.24
 CCSD iterations        77.42      3.06     80.48     80.45
 Triples               242.69      2.31    245.00    244.89
 MP2-F12                 8.70      1.08      9.78      9.77
 F12b energy             5.57      0.05      5.62      5.62

 Program statistics:

 Available memory in ccsd:                99998934
 Min. memory needed in ccsd:               8644845
 Max. memory used in ccsd:                11598633
 Max. memory used in cckext:               8768967 (10 integral passes)



 **********************************************************************************************************************************
 DATASETS  * FILE   NREC   LENGTH (MB)   RECORD NAMES
              1      20      527.84       500      610      700      900      950      970     1000      129      960     1100   
                                          VAR    BASINP    GEOM    SYMINP    ZMAT    AOBASIS   BASIS     P2S    ABASIS      S 
                                         1400     1410     1200     1210     1080     1600     1650     1700      960(1)  1380   
                                           T        V       H0       H01     AOSYM     SMH    MOLCAS    OPER    ABASIS    JKOP   

              2       5        2.50       700     1000     2100     7360     7350   
                                         GEOM     BASIS     RHF    F12ABS    EF12   

 PROGRAMS   *        TOTAL   CCSD(T)        HF       INT
 CPU TIMES  *       368.62    347.87     10.80      9.88
 REAL TIME  *       377.78 SEC
 DISK USED  *         3.68 GB      
 SF USED    *         1.91 GB      
 GA USED    *         2.40 MB       (max)       0.00 MB       (current)
 **********************************************************************************************************************************

     CCSD(T)-F12        HF-SCF  
   -264.75951815   -263.76859002
 **********************************************************************************************************************************
 Variable memory released
