
 Primary working directories    : /scratch/kee
 Secondary working directories  : /scratch/kee
 Wavefunction directory         : /home/kee/wfu/
 Main file repository           : /scratch/kee/

 ARCHNAME  : Linux/x86_64
 FC        : /opt/intel/composer_xe_2015.0.090/bin/intel64/ifort
 FCVERSION : 15.0.0
 BLASLIB   : -L/opt/intel/mkl/lib/intel64 -lmkl_intel_ilp64 -lmkl_sequential -lmkl_core
 id        : emory

 Nodes     nprocs
 node20       3
 Number of processes for MPI-2 version of Molpro:   nprocs(total)=    4   nprocs(compute)=    3   nprocs(helper)=    1
 ga_uses_ma=false, calling ma_init with nominal heap.
 GA-space will be limited to   8.0 MW (determined by -G option)

 Using customized tuning parameters: mindgm=7; mindgv=32; mindgc=1; mindgr=1; noblas=0; mincuda=1000; minvec=7
 default implementation of scratch files=sf  

 ***,co2h2o
 memory,100,m
 basis avtz
 geomtype = xyz
 geometry = {
 6
       0.00000777
 O    10.97257393   -1.10347931    0.00000000
 O    11.76744404    1.08065151   -0.00000000
 O     6.39356282    0.00000000    0.00000000
 H     5.64556774    0.58340495    0.10287003
 H     7.14598802    0.58686026    0.10347930
 C    11.34356282    0.00000000    0.00000000
 }
 hf
 ccsd(t)-f12
 ---

 Variables initialized (665), CPU time= 0.00 sec
 Commands  initialized (462), CPU time= 0.01 sec, 486 directives.
 Default parameters read. Elapsed time= 0.03 sec

 Checking input...
 Passed
1


                                         ***  PROGRAM SYSTEM MOLPRO  ***
                         Copyright, University College Cardiff Consultants Limited, 2008

                                    Version 2010.1 linked 9 Dec 2014 15:06:28 


 **********************************************************************************************************************************
 LABEL *   co2h2o                                                                        
 Linux-2.6.32-504.el6.x86_64/node20(x86_64) 64 bit mpp version                           DATE: 18-Jan-17          TIME: 22:12:44  
 **********************************************************************************************************************************

 Patch level:      19
 **********************************************************************************************************************************

 Variable memory set to  100000000 words,  buffer space   230000 words

 SETTING BASIS          =    AVTZ
 SETTING GEOMTYPE       =    XYZ

Geometry recognized as XYZ



 Recomputing integrals since basis changed


 Using spherical harmonics

 Library entry O      S aug-cc-pVTZ          selected for orbital group  1
 Library entry O      P aug-cc-pVTZ          selected for orbital group  1
 Library entry O      D aug-cc-pVTZ          selected for orbital group  1
 Library entry O      F aug-cc-pVTZ          selected for orbital group  1
 Library entry H      S aug-cc-pVTZ          selected for orbital group  2
 Library entry H      P aug-cc-pVTZ          selected for orbital group  2
 Library entry H      D aug-cc-pVTZ          selected for orbital group  2
 Library entry C      S aug-cc-pVTZ          selected for orbital group  3
 Library entry C      P aug-cc-pVTZ          selected for orbital group  3
 Library entry C      D aug-cc-pVTZ          selected for orbital group  3
 Library entry C      F aug-cc-pVTZ          selected for orbital group  3

1PROGRAM * SEWARD (Integral evaluation for generally contracted gaussian basis sets)     Author: Roland Lindh, 1990

 Geometry written to block  1 of record 700


 Point group  C1  



 ATOMIC COORDINATES

 NR  ATOM    CHARGE       X              Y              Z

   1  O       8.00   20.735159684   -2.085273688    0.000000000
   2  O       8.00   22.237246502    2.042135397    0.000000000
   3  O       8.00   12.082082734    0.000000000    0.000000000
   4  H       1.00   10.668576885    1.102475579    0.194396184
   5  H       1.00   13.503960296    1.109005169    0.195547537
   6  C       6.00   21.436227084    0.000000000    0.000000000

 Bond lengths in Bohr (Angstrom)

 1-6  2.199968602  2-6  2.193615529  3-4  1.803119814  3-5  1.813799081
     (1.164173245)     (1.160811343)     (0.954169911)     (0.959821135)

 Bond angles

  1-6-2  177.16520951   4-3-5  103.24222917

 NUCLEAR CHARGE:                   32
 NUMBER OF PRIMITIVE AOS:         322
 NUMBER OF SYMMETRY AOS:          282
 NUMBER OF CONTRACTIONS:          230   ( 230A   )
 NUMBER OF CORE ORBITALS:           4   (   4A   )
 NUMBER OF VALENCE ORBITALS:       18   (  18A   )


 NUCLEAR REPULSION ENERGY   90.64379843


 Eigenvalues of metric

         1 0.299E-03 0.341E-03 0.361E-03 0.383E-03 0.893E-03 0.917E-03 0.119E-02 0.163E-02


 Contracted 2-electron integrals neglected if value below      1.0D-11
 AO integral compression algorithm  1   Integral accuracy      1.0D-11

     752.615 MB (compressed) written to integral file ( 23.0%)

     Node minimum: 237.240 MB, node maximum: 262.668 MB


 NUMBER OF SORTED TWO-ELECTRON INTEGRALS:  117629820.     BUFFER LENGTH:  32768
 NUMBER OF SEGMENTS:   8  SEGMENT LENGTH:   15997437      RECORD LENGTH: 524288

 Memory used in sort:      16.55 MW

 SORT1 READ   409562673. AND WROTE    58723486. INTEGRALS IN    172 RECORDS. CPU TIME:     3.83 SEC, REAL TIME:     4.32 SEC
 SORT2 READ   176390712. AND WROTE   352862895. INTEGRALS IN   2892 RECORDS. CPU TIME:     1.31 SEC, REAL TIME:     1.69 SEC

 Node minimum:   117612110.  Node maximum:   117629820. integrals

 OPERATOR DM      FOR CENTER  0  COORDINATES:    0.000000    0.000000    0.000000


 **********************************************************************************************************************************
 DATASETS  * FILE   NREC   LENGTH (MB)   RECORD NAMES
              1      18        4.62       500      610      700      900      950      970     1000      129      960     1100   
                                          VAR    BASINP    GEOM    SYMINP    ZMAT    AOBASIS   BASIS     P2S    ABASIS      S 
                                         1400     1410     1200     1210     1080     1600     1650     1700   
                                           T        V       H0       H01     AOSYM     SMH    MOLCAS    OPER   

 PROGRAMS   *        TOTAL       INT
 CPU TIMES  *         8.83      8.77
 REAL TIME  *         9.90 SEC
 DISK USED  *         2.81 GB      
 GA USED    *         0.00 MB       (max)       0.00 MB       (current)
 **********************************************************************************************************************************

1PROGRAM * RHF-SCF (CLOSED SHELL)       Authors: W. Meyer, H.-J. Werner


 NUMBER OF ELECTRONS:      16+   16-    SPACE SYMMETRY=1    SPIN SYMMETRY=Singlet 
 CONVERGENCE THRESHOLDS:    1.00E-05 (Density)    1.00E-07 (Energy)
 MAX. NUMBER OF ITERATIONS:       60
 INTERPOLATION TYPE:            DIIS
 INTERPOLATION STEPS:              2 (START)      1 (STEP)
 LEVEL SHIFTS:                  0.00 (CLOSED)  0.00 (OPEN) 



 Orbital guess generated from atomic densities. Full valence occupancy:   22

 Molecular orbital dump at record        2100.2

 ITERATION    DDIFF          GRAD             ENERGY        2-EL.EN.            DIPOLE MOMENTS         DIIS
    1      0.000D+00      0.000D+00      -263.65820575    376.539062   -0.06851    1.17011    0.19886    0
    2      0.000D+00      0.471D-02      -263.72395108    372.068584   -0.02186    0.63568    0.11426    1
    3      0.754D-02      0.321D-02      -263.76799951    374.609218   -0.03617    0.77903    0.13465    2
    4      0.311D-02      0.301D-03      -263.76849768    374.395809   -0.03684    0.77716    0.13559    3
    5      0.357D-03      0.884D-04      -263.76855684    374.399851   -0.03548    0.77594    0.13459    4
    6      0.134D-03      0.363D-04      -263.76856437    374.414039   -0.03624    0.77409    0.13473    5
    7      0.449D-04      0.939D-05      -263.76856516    374.406549   -0.03586    0.77489    0.13466    6
    8      0.152D-04      0.299D-05      -263.76856523    374.406827   -0.03609    0.77425    0.13466    7
    9      0.437D-05      0.182D-05      -263.76856524    374.407427   -0.03596    0.77463    0.13466    0

 Final occupancy:  16

 !RHF STATE 1.1 Energy               -263.768565236013
 Nuclear energy                        90.64379843
 One-electron energy                 -541.61607721
 Two-electron energy                  187.20371355
 Virial quotient                       -1.00179308
 !RHF STATE 1.1 Dipole moment          -0.03596492     0.77463191     0.13465978
 Dipole moment /Debye                  -0.09140773     1.96878896     0.34224859

 Orbital energies:

         1.1          2.1          3.1          4.1          5.1          6.1          7.1          8.1          9.1         10.1
    -20.655858   -20.654106   -20.569838   -11.463659    -1.532533    -1.479115    -1.356781    -0.802663    -0.744644    -0.717831

        11.1         12.1         13.1         14.1         15.1         16.1         17.1         18.1
     -0.716500    -0.716464    -0.589431    -0.546061    -0.546038    -0.512805     0.026901     0.043973


 **********************************************************************************************************************************
 DATASETS  * FILE   NREC   LENGTH (MB)   RECORD NAMES
              1      18        4.62       500      610      700      900      950      970     1000      129      960     1100   
                                          VAR    BASINP    GEOM    SYMINP    ZMAT    AOBASIS   BASIS     P2S    ABASIS      S 
                                         1400     1410     1200     1210     1080     1600     1650     1700   
                                           T        V       H0       H01     AOSYM     SMH    MOLCAS    OPER   

              2       3        1.44       700     1000     2100   
                                         GEOM     BASIS     RHF  

 PROGRAMS   *        TOTAL        HF       INT
 CPU TIMES  *        18.76      9.93      8.77
 REAL TIME  *        20.12 SEC
 DISK USED  *         2.85 GB      
 SF USED    *         0.21 MB      
 GA USED    *         0.00 MB       (max)       0.00 MB       (current)
 **********************************************************************************************************************************


1PROGRAM * CCSD (Closed-shell coupled cluster)     Authors: C. Hampel, H.-J. Werner, 1991, M. Deegan, P.J. Knowles, 1992

                                  CCSD-F12 implementation by  H.-J. Werner, 2007

                   Density fitting integral evaluation by F.R. Manby, 2003,2007, G. Knizia, 2010

 Basis set CC-PVTZ/JKFIT generated.      Number of basis functions:   376 
 Basis set AUG-CC-PVTZ/MP2FIT generated. Number of basis functions:   516 

 Convergence thresholds:  THRVAR = 1.00D-08  THRDEN = 1.00D-06

 CCSD(T)     terms to be evaluated (factor= 1.000)


 Number of core orbitals:           4 (   4 )
 Number of closed-shell orbitals:  12 (  12 )
 Number of external orbitals:     214 ( 214 )

 Molecular orbitals read from record     2100.2  Type=RHF/CANONICAL (state 1.1)

 MP2-F12 correlation treatment (H.-J. Werner, 2006)
 --------------------------------------------------

 Using MP2-F12 with ansatz 3C(FIX)

 Using projected zeroth-order Hamiltonian (+Z)

 FOCKRIB=T FOCKRIC=T FOCKRIP=T CABSP=T CABSA=T CABSK=T CABSF=T GBC=F EBC=F DMAT=T NOFIK=T NOPAO=1 SOLVE=-1  USEPAO=0
 EXCH_A= T EXCH_B= F EXCH_C= F EXCH_P= F
 
 Geminal basis:    OPTFULL  GEM_TYPE=SLATER  BETA=1.0  NGEM=6

 Optimizing Gaussian exponents for each gem_beta

 Geminal optimization for beta= 1.0000
 Weight function:   m=0, omega= 1.4646

 Augmented Hessian optimization of geminal fit. Trust ratio= 0.40000
 Convergence reached after   2 iterations. Final gradient= 8.24D-16, Step= 4.32D-06, Delta= 1.28D-09
 
 Alpha:                 0.19532     0.81920     2.85917     9.50073    35.69989   197.79328
 Coeff:                 0.27070     0.30552     0.18297     0.10986     0.06810     0.04224
 

 All pairs explicitly correlated. Number of r12-pairs:           78
 
 AO(A)-basis ORBITAL           loaded. Number of functions:     230
 RI(R)-basis CC-PVTZ/JKFIT     loaded. Number of functions:     376
 DF-basis CC-PVTZ/JKFIT        loaded. Number of functions:     376

 Screening thresholds:   THRAO=  1.00D-10  THRMO=  1.00D-09  THRPROD=  1.00D-09
                         THRSW=  1.00D-05  THROV=  1.00D-12  THRF12=   1.00D-08

 CPU time for Fock operators                      0.81 sec
 
 Construction of ABS:
 Smallest eigenvalue of S          2.58E-04  (threshold= 1.00E-08)
 Ratio eigmin/eigmax               1.84E-06  (threshold= 1.00E-09)
 Smallest eigenvalue of S kept     2.58E-04  (threshold= 2.58E-04, 0 functions deleted, 376 kept)
 
 Construction of CABS:
 Smallest eigenvalue of S          2.29E-08  (threshold= 1.00E-08)
 Ratio eigmin/eigmax               2.29E-08  (threshold= 1.00E-09)
 Smallest eigenvalue of S kept     2.29E-08  (threshold= 2.29E-08, 0 functions deleted, 376 kept)
 
 CPU time for CABS singles                        0.14 sec

 CABS-singles contribution of  -0.01593317 patched into reference energy.
 New reference energy        -263.78449840
 
 AO(A)-basis ORBITAL           loaded. Number of functions:     230
 RI(R)-basis CC-PVTZ/JKFIT     loaded. Number of functions:     376
 DF-basis AUG-CC-PVTZ/MP2FIT   loaded. Number of functions:     516

 Screening thresholds:   THRAO=  1.00D-10  THRMO=  1.00D-09  THRPROD=  1.00D-09
                         THRSW=  1.00D-05  THROV=  1.00D-12  THRF12=   1.00D-08

 CPU time for 3-index integral evaluation         2.16 sec
 CPU time for first  half transformation          0.23 sec (13193.3 MFLOP/sec)
 CPU time for second half transformation          0.02 sec ( 5189.7 MFLOP/sec)
 CPU time for sorting                             0.12 sec
 CPU time for fitting                             0.05 sec (27861.0 MFLOP/sec)
 CPU time for tilde quantities                    0.05 sec (36977.6 MFLOP/sec)
 CPU time for assembly                            0.68 sec (35178.2 MFLOP/sec)
 CPU time for tranop_f12                          0.80 sec (37854.3 MFLOP/sec)
 CPU time for f12 integrals (total)               5.83 sec
 F12-matrices built in  3 passes.
 F12-matrices built in  3 passes.
 F12-matrices built in  3 passes.
 F12-matrices built in  3 passes.
 FC-matrix built in  3 passes.
 CPU time for f12 matrices (total)                0.42 sec

 Diagonal F12 approximation with fixed coefficients:  TSING= 0.500,  TTRIP= 0.250 (scaled by -1/beta)

 DF-MP2-F12 energy corrections:
 ------------------------------
 Approx.                                    Singlet             Triplet             Total
 DF-MP2-F12/3*C(DX,FIX)                -0.097400807431     -0.016926856074     -0.114327663505
 DF-MP2-F12/3*C(FIX)                   -0.079814260073     -0.013389078595     -0.093203338668
 DF-MP2-F12/3C(FIX)                    -0.080176805017     -0.013414402743     -0.093591207760

 DF-MP2-F12 correlation energies:
 --------------------------------
 Approx.                                    Singlet             Triplet             Ecorr            Total Energy
 DF-MP2                                -0.537949426919     -0.343312266826     -0.881261693745   -264.665760097131
 DF-MP2-F12/3*C(DX,FIX)                -0.635350234350     -0.360239122900     -0.995589357250   -264.780087760636
 DF-MP2-F12/3*C(FIX)                   -0.617763686992     -0.356701345421     -0.974465032413   -264.758963435799
 DF-MP2-F12/3C(FIX)                    -0.618126231936     -0.356726669569     -0.974852901505   -264.759351304891

 SCS-DF-MP2 energies (F_SING= 1.20000  F_TRIP= 0.62222  F_PARALLEL= 0.33333):
 ----------------------------------------------------------------------------
 SCS-DF-MP2                            -0.859155833883   -264.643654237270
 SCS-DF-MP2-F12/3*C(DX,FIX)            -0.986569068802   -264.771067472188
 SCS-DF-MP2-F12/3*C(FIX)               -0.963263928208   -264.747762331594
 SCS-DF-MP2-F12/3C(FIX)                -0.963714739388   -264.748213142775
 Symmetry transformation completed.

 Number of N-1 electron functions:              12
 Number of N-2 electron functions:              78
 Number of singly external CSFs:              2568
 Number of doubly external CSFs:           3298596
 Total number of CSFs:                     3301165

 Pair and operator lists are different

 Length of J-op  integral file:             474.22 MB
 Length of K-op  integral file:             572.29 MB
 Length of 3-ext integral record:             0.00 MB

 For full I/O caching in triples, increase memory by 50.81 Mwords to 151.09 Mwords.

 Integral transformation finished. Total CPU:  11.28 sec, npass=  1  Memory used:  87.46 MW

 Reference energy:                   -263.78449840

 Adding F12 terms to K(Cij), methodcc=6,  factor=1.0

 ITER.      SQ.NORM     CORR.ENERGY   TOTAL ENERGY   ENERGY CHANGE        DEN1      VAR(S)    VAR(P)  DIIS     TIME
   1      1.20228737    -0.86314449  -264.64764289     0.01813299     0.04683843  0.72D-02  0.56D-02  1  1    26.26
   2      1.21664173    -0.85889584  -264.64339424     0.00424865    -0.02020849  0.86D-04  0.59D-03  2  2    33.73
   3      1.22200170    -0.85899127  -264.64348968    -0.00009543    -0.00235262  0.13D-03  0.33D-04  3  3    41.27
   4      1.22481735    -0.85886232  -264.64336072     0.00012896    -0.00141530  0.76D-05  0.41D-05  4  4    48.82
   5      1.22585346    -0.85882414  -264.64332254     0.00003818    -0.00036792  0.56D-06  0.29D-06  5  5    56.31
   6      1.22601571    -0.85879733  -264.64329573     0.00002681    -0.00000745  0.40D-07  0.24D-07  6  6    63.83
   7      1.22604504    -0.85879490  -264.64329331     0.00000243    -0.00000607  0.27D-08  0.41D-08  6  4    71.34
   8      1.22604542    -0.85879440  -264.64329281     0.00000050     0.00000195  0.41D-09  0.28D-09  6  1    78.84
   9      1.22604601    -0.85879447  -264.64329287    -0.00000007     0.00000059  0.30D-10  0.23D-10  6  2    86.35

 Norm of t1 vector:      0.10614104      S-energy:     0.00000123      T1 diagnostic:  0.01532014
                                                                       D1 diagnostic:  0.04501072

 Adding energy correction from Wij-K(Fij), methodcc=6  factor=1.0
 
  CCSD correlation energy              -0.858794471407
  MP2-F12 correction (uncoupled)       -0.092432132370
  C*T doubles correction               -0.001476661137
  f12b correction                       0.015402563139


 Total CPU time for triples:    181.29 sec


 RESULTS
 =======

  Reference energy                   -263.768565236013
  F12 singles correction               -0.015933167374

 F12 singles corrections added to reference energy

  New reference energy               -263.784498403387

  F12a singlet correction              -0.080377321803
  F12a triplet correction              -0.013531471704
  F12a total correction                -0.093908793507

 F12a corrections for ansatz F12/3C(FIX) added to CCSD energy
 
  CCSD-F12a singlet pair energy        -0.642032961960
  CCSD-F12a triplet pair energy        -0.310671533972
  CCSD-F12a correlation energy         -0.952703264914

  Triples (T) contribution             -0.037709650917
  Total correlation energy             -0.990412915831

  CCSD-F12a total energy             -264.737201668301
  CCSD[T]-F12a energy                -264.777464917306
  CCSD-T-F12a energy                 -264.773970304349
 !CCSD(T)-F12a total energy          -264.774911319218

 F12b corrections for ansatz F12/3C(FIX) added to CCSD(T)-F12a energy

  CCSD-F12b singlet pair energy        -0.627853490184
  CCSD-F12b triplet pair energy        -0.309448442609
  CCSD-F12b correlation energy         -0.937300701775

  Triples (T) contribution             -0.037709650917
  Total correlation energy             -0.975010352692

  CCSD-F12b total energy             -264.721799105161
  CCSD[T]-F12b energy                -264.762062354166
  CCSD-T-F12b energy                 -264.758567741210
 !CCSD(T)-F12b total energy          -264.759508756079

 Timing summary (sec):

 STEP                 CPU(USER)    SYS     CPU(TOT)    WALL
 Transformation         11.38      0.96     12.34     12.34
 CCSD iterations        67.33      2.63     69.96     69.90
 Triples               181.29      2.28    183.57    183.48
 MP2-F12                 7.67      0.97      8.64      8.64
 F12b energy             5.17      0.04      5.21      5.21

 Program statistics:

 Available memory in ccsd:                99998934
 Min. memory needed in ccsd:               8644845
 Max. memory used in ccsd:                11598633
 Max. memory used in cckext:               8768967 (10 integral passes)



 **********************************************************************************************************************************
 DATASETS  * FILE   NREC   LENGTH (MB)   RECORD NAMES
              1      20      527.84       500      610      700      900      950      970     1000      129      960     1100   
                                          VAR    BASINP    GEOM    SYMINP    ZMAT    AOBASIS   BASIS     P2S    ABASIS      S 
                                         1400     1410     1200     1210     1080     1600     1650     1700      960(1)  1380   
                                           T        V       H0       H01     AOSYM     SMH    MOLCAS    OPER    ABASIS    JKOP   

              2       5        2.50       700     1000     2100     7360     7350   
                                         GEOM     BASIS     RHF    F12ABS    EF12   

 PROGRAMS   *        TOTAL   CCSD(T)        HF       INT
 CPU TIMES  *       291.87    273.10      9.93      8.77
 REAL TIME  *       300.03 SEC
 DISK USED  *         3.71 GB      
 SF USED    *         1.91 GB      
 GA USED    *         2.40 MB       (max)       0.00 MB       (current)
 **********************************************************************************************************************************

     CCSD(T)-F12        HF-SCF  
   -264.75950876   -263.76856524
 **********************************************************************************************************************************
 Variable memory released
