
 Primary working directories    : /scratch/kee
 Secondary working directories  : /scratch/kee
 Wavefunction directory         : /home/kee/wfu/
 Main file repository           : /scratch/kee/

 ARCHNAME  : Linux/x86_64
 FC        : /opt/intel/composer_xe_2015.0.090/bin/intel64/ifort
 FCVERSION : 15.0.0
 BLASLIB   : -L/opt/intel/mkl/lib/intel64 -lmkl_intel_ilp64 -lmkl_sequential -lmkl_core
 id        : emory

 Nodes     nprocs
 node20       3
 Number of processes for MPI-2 version of Molpro:   nprocs(total)=    4   nprocs(compute)=    3   nprocs(helper)=    1
 ga_uses_ma=false, calling ma_init with nominal heap.
 GA-space will be limited to   8.0 MW (determined by -G option)

 Using customized tuning parameters: mindgm=7; mindgv=32; mindgc=1; mindgr=1; noblas=0; mincuda=1000; minvec=7
 default implementation of scratch files=sf  

 ***,co2h2o
 memory,100,m
 basis avtz
 geomtype = xyz
 geometry = {
 6
       0.00000777
 O    10.97257393   -1.10347931    0.00000000
 O    11.76744404    1.08065151   -0.00000000
 O     6.69356282    0.00000000    0.00000000
 H     5.94556774    0.58340495    0.10287003
 H     7.44598802    0.58686026    0.10347930
 C    11.34356282    0.00000000    0.00000000
 }
 hf
 ccsd(t)-f12
 ---

 Variables initialized (665), CPU time= 0.01 sec
 Commands  initialized (462), CPU time= 0.01 sec, 486 directives.
 Default parameters read. Elapsed time= 0.04 sec

 Checking input...
 Passed
1


                                         ***  PROGRAM SYSTEM MOLPRO  ***
                         Copyright, University College Cardiff Consultants Limited, 2008

                                    Version 2010.1 linked 9 Dec 2014 15:06:28 


 **********************************************************************************************************************************
 LABEL *   co2h2o                                                                        
 Linux-2.6.32-504.el6.x86_64/node20(x86_64) 64 bit mpp version                           DATE: 18-Jan-17          TIME: 21:37:40  
 **********************************************************************************************************************************

 Patch level:      19
 **********************************************************************************************************************************

 Variable memory set to  100000000 words,  buffer space   230000 words

 SETTING BASIS          =    AVTZ
 SETTING GEOMTYPE       =    XYZ

Geometry recognized as XYZ



 Recomputing integrals since basis changed


 Using spherical harmonics

 Library entry O      S aug-cc-pVTZ          selected for orbital group  1
 Library entry O      P aug-cc-pVTZ          selected for orbital group  1
 Library entry O      D aug-cc-pVTZ          selected for orbital group  1
 Library entry O      F aug-cc-pVTZ          selected for orbital group  1
 Library entry H      S aug-cc-pVTZ          selected for orbital group  2
 Library entry H      P aug-cc-pVTZ          selected for orbital group  2
 Library entry H      D aug-cc-pVTZ          selected for orbital group  2
 Library entry C      S aug-cc-pVTZ          selected for orbital group  3
 Library entry C      P aug-cc-pVTZ          selected for orbital group  3
 Library entry C      D aug-cc-pVTZ          selected for orbital group  3
 Library entry C      F aug-cc-pVTZ          selected for orbital group  3

1PROGRAM * SEWARD (Integral evaluation for generally contracted gaussian basis sets)     Author: Roland Lindh, 1990

 Geometry written to block  1 of record 700


 Point group  C1  



 ATOMIC COORDINATES

 NR  ATOM    CHARGE       X              Y              Z

   1  O       8.00   20.735159684   -2.085273688    0.000000000
   2  O       8.00   22.237246502    2.042135397    0.000000000
   3  O       8.00   12.649000573    0.000000000    0.000000000
   4  H       1.00   11.235494724    1.102475579    0.194396184
   5  H       1.00   14.070878136    1.109005169    0.195547537
   6  C       6.00   21.436227084    0.000000000    0.000000000

 Bond lengths in Bohr (Angstrom)

 1-6  2.199968602  2-6  2.193615529  3-4  1.803119814  3-5  1.813799081
     (1.164173245)     (1.160811343)     (0.954169911)     (0.959821135)

 Bond angles

  1-6-2  177.16520951   4-3-5  103.24222917

 NUCLEAR CHARGE:                   32
 NUMBER OF PRIMITIVE AOS:         322
 NUMBER OF SYMMETRY AOS:          282
 NUMBER OF CONTRACTIONS:          230   ( 230A   )
 NUMBER OF CORE ORBITALS:           4   (   4A   )
 NUMBER OF VALENCE ORBITALS:       18   (  18A   )


 NUCLEAR REPULSION ENERGY   92.09404192


 Eigenvalues of metric

         1 0.285E-03 0.339E-03 0.353E-03 0.379E-03 0.887E-03 0.911E-03 0.110E-02 0.162E-02


 Contracted 2-electron integrals neglected if value below      1.0D-11
 AO integral compression algorithm  1   Integral accuracy      1.0D-11

     802.947 MB (compressed) written to integral file ( 24.5%)

     Node minimum: 264.503 MB, node maximum: 272.630 MB


 NUMBER OF SORTED TWO-ELECTRON INTEGRALS:  117629820.     BUFFER LENGTH:  32768
 NUMBER OF SEGMENTS:   8  SEGMENT LENGTH:   15997437      RECORD LENGTH: 524288

 Memory used in sort:      16.55 MW

 SORT1 READ   410288713. AND WROTE    62922964. INTEGRALS IN    185 RECORDS. CPU TIME:     4.40 SEC, REAL TIME:     5.01 SEC
 SORT2 READ   189039148. AND WROTE   352862895. INTEGRALS IN   3120 RECORDS. CPU TIME:     1.47 SEC, REAL TIME:     1.92 SEC

 Node minimum:   117612110.  Node maximum:   117629820. integrals

 OPERATOR DM      FOR CENTER  0  COORDINATES:    0.000000    0.000000    0.000000


 **********************************************************************************************************************************
 DATASETS  * FILE   NREC   LENGTH (MB)   RECORD NAMES
              1      18        4.62       500      610      700      900      950      970     1000      129      960     1100   
                                          VAR    BASINP    GEOM    SYMINP    ZMAT    AOBASIS   BASIS     P2S    ABASIS      S 
                                         1400     1410     1200     1210     1080     1600     1650     1700   
                                           T        V       H0       H01     AOSYM     SMH    MOLCAS    OPER   

 PROGRAMS   *        TOTAL       INT
 CPU TIMES  *        10.64     10.56
 REAL TIME  *        11.92 SEC
 DISK USED  *         3.02 GB      
 GA USED    *         0.00 MB       (max)       0.00 MB       (current)
 **********************************************************************************************************************************

1PROGRAM * RHF-SCF (CLOSED SHELL)       Authors: W. Meyer, H.-J. Werner


 NUMBER OF ELECTRONS:      16+   16-    SPACE SYMMETRY=1    SPIN SYMMETRY=Singlet 
 CONVERGENCE THRESHOLDS:    1.00E-05 (Density)    1.00E-07 (Energy)
 MAX. NUMBER OF ITERATIONS:       60
 INTERPOLATION TYPE:            DIIS
 INTERPOLATION STEPS:              2 (START)      1 (STEP)
 LEVEL SHIFTS:                  0.00 (CLOSED)  0.00 (OPEN) 



 Orbital guess generated from atomic densities. Full valence occupancy:   22

 Molecular orbital dump at record        2100.2

 ITERATION    DDIFF          GRAD             ENERGY        2-EL.EN.            DIPOLE MOMENTS         DIIS
    1      0.000D+00      0.000D+00      -263.65781080    379.413839   -0.06807    1.16993    0.19885    0
    2      0.000D+00      0.471D-02      -263.72362804    374.954163   -0.02477    0.62712    0.11357    1
    3      0.755D-02      0.321D-02      -263.76781656    377.492530   -0.03712    0.77448    0.13418    2
    4      0.312D-02      0.301D-03      -263.76831535    377.278967   -0.03813    0.77163    0.13513    3
    5      0.357D-03      0.887D-04      -263.76837473    377.283203   -0.03656    0.77107    0.13413    4
    6      0.135D-03      0.366D-04      -263.76838236    377.297336   -0.03747    0.76882    0.13427    5
    7      0.451D-04      0.959D-05      -263.76838317    377.290046   -0.03703    0.76978    0.13420    6
    8      0.155D-04      0.318D-05      -263.76838324    377.290142   -0.03728    0.76909    0.13420    7
    9      0.448D-05      0.182D-05      -263.76838325    377.290827   -0.03716    0.76947    0.13420    0

 Final occupancy:  16

 !RHF STATE 1.1 Energy               -263.768383250996
 Nuclear energy                        92.09404192
 One-electron energy                 -544.50783887
 Two-electron energy                  188.64541370
 Virial quotient                       -1.00179099
 !RHF STATE 1.1 Dipole moment          -0.03716108     0.76946676     0.13419915
 Dipole moment /Debye                  -0.09444787     1.95566132     0.34107788

 Orbital energies:

         1.1          2.1          3.1          4.1          5.1          6.1          7.1          8.1          9.1         10.1
    -20.656139   -20.654259   -20.570261   -11.463821    -1.532759    -1.479310    -1.357196    -0.802833    -0.744781    -0.718514

        11.1         12.1         13.1         14.1         15.1         16.1         17.1         18.1
     -0.716683    -0.716509    -0.589796    -0.546235    -0.546209    -0.513202     0.027050     0.044433


 **********************************************************************************************************************************
 DATASETS  * FILE   NREC   LENGTH (MB)   RECORD NAMES
              1      18        4.62       500      610      700      900      950      970     1000      129      960     1100   
                                          VAR    BASINP    GEOM    SYMINP    ZMAT    AOBASIS   BASIS     P2S    ABASIS      S 
                                         1400     1410     1200     1210     1080     1600     1650     1700   
                                           T        V       H0       H01     AOSYM     SMH    MOLCAS    OPER   

              2       3        1.44       700     1000     2100   
                                         GEOM     BASIS     RHF  

 PROGRAMS   *        TOTAL        HF       INT
 CPU TIMES  *        21.69     11.05     10.56
 REAL TIME  *        23.35 SEC
 DISK USED  *         3.06 GB      
 SF USED    *         0.21 MB      
 GA USED    *         0.00 MB       (max)       0.00 MB       (current)
 **********************************************************************************************************************************


1PROGRAM * CCSD (Closed-shell coupled cluster)     Authors: C. Hampel, H.-J. Werner, 1991, M. Deegan, P.J. Knowles, 1992

                                  CCSD-F12 implementation by  H.-J. Werner, 2007

                   Density fitting integral evaluation by F.R. Manby, 2003,2007, G. Knizia, 2010

 Basis set CC-PVTZ/JKFIT generated.      Number of basis functions:   376 
 Basis set AUG-CC-PVTZ/MP2FIT generated. Number of basis functions:   516 

 Convergence thresholds:  THRVAR = 1.00D-08  THRDEN = 1.00D-06

 CCSD(T)     terms to be evaluated (factor= 1.000)


 Number of core orbitals:           4 (   4 )
 Number of closed-shell orbitals:  12 (  12 )
 Number of external orbitals:     214 ( 214 )

 Molecular orbitals read from record     2100.2  Type=RHF/CANONICAL (state 1.1)

 MP2-F12 correlation treatment (H.-J. Werner, 2006)
 --------------------------------------------------

 Using MP2-F12 with ansatz 3C(FIX)

 Using projected zeroth-order Hamiltonian (+Z)

 FOCKRIB=T FOCKRIC=T FOCKRIP=T CABSP=T CABSA=T CABSK=T CABSF=T GBC=F EBC=F DMAT=T NOFIK=T NOPAO=1 SOLVE=-1  USEPAO=0
 EXCH_A= T EXCH_B= F EXCH_C= F EXCH_P= F
 
 Geminal basis:    OPTFULL  GEM_TYPE=SLATER  BETA=1.0  NGEM=6

 Optimizing Gaussian exponents for each gem_beta

 Geminal optimization for beta= 1.0000
 Weight function:   m=0, omega= 1.4646

 Augmented Hessian optimization of geminal fit. Trust ratio= 0.40000
 Convergence reached after   2 iterations. Final gradient= 8.24D-16, Step= 4.32D-06, Delta= 1.28D-09
 
 Alpha:                 0.19532     0.81920     2.85917     9.50073    35.69989   197.79328
 Coeff:                 0.27070     0.30552     0.18297     0.10986     0.06810     0.04224
 

 All pairs explicitly correlated. Number of r12-pairs:           78
 
 AO(A)-basis ORBITAL           loaded. Number of functions:     230
 RI(R)-basis CC-PVTZ/JKFIT     loaded. Number of functions:     376
 DF-basis CC-PVTZ/JKFIT        loaded. Number of functions:     376

 Screening thresholds:   THRAO=  1.00D-10  THRMO=  1.00D-09  THRPROD=  1.00D-09
                         THRSW=  1.00D-05  THROV=  1.00D-12  THRF12=   1.00D-08

 CPU time for Fock operators                      0.92 sec
 
 Construction of ABS:
 Smallest eigenvalue of S          2.57E-04  (threshold= 1.00E-08)
 Ratio eigmin/eigmax               1.84E-06  (threshold= 1.00E-09)
 Smallest eigenvalue of S kept     2.57E-04  (threshold= 2.57E-04, 0 functions deleted, 376 kept)
 
 Construction of CABS:
 Smallest eigenvalue of S          2.28E-08  (threshold= 1.00E-08)
 Ratio eigmin/eigmax               2.28E-08  (threshold= 1.00E-09)
 Smallest eigenvalue of S kept     2.28E-08  (threshold= 2.28E-08, 0 functions deleted, 376 kept)
 
 CPU time for CABS singles                        0.16 sec

 CABS-singles contribution of  -0.01593175 patched into reference energy.
 New reference energy        -263.78431500
 
 AO(A)-basis ORBITAL           loaded. Number of functions:     230
 RI(R)-basis CC-PVTZ/JKFIT     loaded. Number of functions:     376
 DF-basis AUG-CC-PVTZ/MP2FIT   loaded. Number of functions:     516

 Screening thresholds:   THRAO=  1.00D-10  THRMO=  1.00D-09  THRPROD=  1.00D-09
                         THRSW=  1.00D-05  THROV=  1.00D-12  THRF12=   1.00D-08

 CPU time for 3-index integral evaluation         2.60 sec
 CPU time for first  half transformation          0.23 sec (13405.3 MFLOP/sec)
 CPU time for second half transformation          0.04 sec ( 2858.4 MFLOP/sec)
 CPU time for sorting                             0.15 sec
 CPU time for fitting                             0.05 sec (27861.0 MFLOP/sec)
 CPU time for tilde quantities                    0.04 sec (46222.0 MFLOP/sec)
 CPU time for assembly                            0.80 sec (29902.8 MFLOP/sec)
 CPU time for tranop_f12                          0.88 sec (35551.8 MFLOP/sec)
 CPU time for f12 integrals (total)               6.90 sec
 F12-matrices built in  3 passes.
 F12-matrices built in  3 passes.
 F12-matrices built in  3 passes.
 F12-matrices built in  3 passes.
 FC-matrix built in  3 passes.
 CPU time for f12 matrices (total)                0.50 sec

 Diagonal F12 approximation with fixed coefficients:  TSING= 0.500,  TTRIP= 0.250 (scaled by -1/beta)

 DF-MP2-F12 energy corrections:
 ------------------------------
 Approx.                                    Singlet             Triplet             Total
 DF-MP2-F12/3*C(DX,FIX)                -0.097386924764     -0.016925440130     -0.114312364893
 DF-MP2-F12/3*C(FIX)                   -0.079801396322     -0.013388307908     -0.093189704230
 DF-MP2-F12/3C(FIX)                    -0.080163820050     -0.013414122471     -0.093577942521

 DF-MP2-F12 correlation energies:
 --------------------------------
 Approx.                                    Singlet             Triplet             Ecorr            Total Energy
 DF-MP2                                -0.538006763248     -0.343386381396     -0.881393144644   -264.665708147245
 DF-MP2-F12/3*C(DX,FIX)                -0.635393688011     -0.360311821526     -0.995705509537   -264.780020512139
 DF-MP2-F12/3*C(FIX)                   -0.617808159570     -0.356774689304     -0.974582848874   -264.758897851475
 DF-MP2-F12/3C(FIX)                    -0.618170583298     -0.356800503867     -0.974971087165   -264.759286089767

 SCS-DF-MP2 energies (F_SING= 1.20000  F_TRIP= 0.62222  F_PARALLEL= 0.33333):
 ----------------------------------------------------------------------------
 SCS-DF-MP2                            -0.859270753210   -264.643585755812
 SCS-DF-MP2-F12/3*C(DX,FIX)            -0.986666447896   -264.770981450498
 SCS-DF-MP2-F12/3*C(FIX)               -0.963362931495   -264.747677934097
 SCS-DF-MP2-F12/3C(FIX)                -0.963813902363   -264.748128904965
 Symmetry transformation completed.

 Number of N-1 electron functions:              12
 Number of N-2 electron functions:              78
 Number of singly external CSFs:              2568
 Number of doubly external CSFs:           3298596
 Total number of CSFs:                     3301165

 Pair and operator lists are different

 Length of J-op  integral file:             474.22 MB
 Length of K-op  integral file:             572.29 MB
 Length of 3-ext integral record:             0.00 MB

 For full I/O caching in triples, increase memory by 50.81 Mwords to 151.09 Mwords.

 Integral transformation finished. Total CPU:  12.37 sec, npass=  1  Memory used:  87.46 MW

 Reference energy:                   -263.78431500

 Adding F12 terms to K(Cij), methodcc=6,  factor=1.0

 ITER.      SQ.NORM     CORR.ENERGY   TOTAL ENERGY   ENERGY CHANGE        DEN1      VAR(S)    VAR(P)  DIIS     TIME
   1      1.20233162    -0.86325807  -264.64757308     0.01815063     0.04687108  0.72D-02  0.56D-02  1  1    29.54
   2      1.21669860    -0.85900604  -264.64332105     0.00425203    -0.02022383  0.86D-04  0.59D-03  2  2    38.23
   3      1.22205638    -0.85910160  -264.64341660    -0.00009556    -0.00234796  0.13D-03  0.33D-04  3  3    46.69
   4      1.22487633    -0.85897254  -264.64328754     0.00012906    -0.00141648  0.76D-05  0.41D-05  4  4    55.07
   5      1.22591367    -0.85893428  -264.64324928     0.00003825    -0.00036812  0.56D-06  0.29D-06  5  5    63.46
   6      1.22607562    -0.85890754  -264.64322254     0.00002674    -0.00000713  0.41D-07  0.24D-07  6  6    71.85
   7      1.22610484    -0.85890512  -264.64322012     0.00000242    -0.00000599  0.28D-08  0.41D-08  6  4    80.24
   8      1.22610522    -0.85890463  -264.64321963     0.00000050     0.00000196  0.41D-09  0.29D-09  6  1    88.63
   9      1.22610580    -0.85890469  -264.64321969    -0.00000007     0.00000059  0.30D-10  0.23D-10  6  2    97.07

 Norm of t1 vector:      0.10617705      S-energy:     0.00000137      T1 diagnostic:  0.01532534
                                                                       D1 diagnostic:  0.04502181

 Adding energy correction from Wij-K(Fij), methodcc=6  factor=1.0
 
  CCSD correlation energy              -0.858904691988
  MP2-F12 correction (uncoupled)       -0.092420269770
  C*T doubles correction               -0.001475693618
  f12b correction                       0.015401956412


 Total CPU time for triples:    195.11 sec


 RESULTS
 =======

  Reference energy                   -263.768383250997
  F12 singles correction               -0.015931751605

 F12 singles corrections added to reference energy

  New reference energy               -263.784315002602

  F12a singlet correction              -0.080365043202
  F12a triplet correction              -0.013530920186
  F12a total correction                -0.093895963388

 F12a corrections for ansatz F12/3C(FIX) added to CCSD energy
 
  CCSD-F12a singlet pair energy        -0.642069713261
  CCSD-F12a triplet pair energy        -0.310732310662
  CCSD-F12a correlation energy         -0.952800655376

  Triples (T) contribution             -0.037730530785
  Total correlation energy             -0.990531186161

  CCSD-F12a total energy             -264.737115657978
  CCSD[T]-F12a energy                -264.777401733613
  CCSD-T-F12a energy                 -264.773904506535
 !CCSD(T)-F12a total energy          -264.774846188762

 F12b corrections for ansatz F12/3C(FIX) added to CCSD(T)-F12a energy

  CCSD-F12b singlet pair energy        -0.627890896009
  CCSD-F12b triplet pair energy        -0.309509171502
  CCSD-F12b correlation energy         -0.937398698964

  Triples (T) contribution             -0.037730530785
  Total correlation energy             -0.975129229749

  CCSD-F12b total energy             -264.721713701566
  CCSD[T]-F12b energy                -264.761999777202
  CCSD-T-F12b energy                 -264.758502550124
 !CCSD(T)-F12b total energy          -264.759444232351

 Timing summary (sec):

 STEP                 CPU(USER)    SYS     CPU(TOT)    WALL
 Transformation         12.47      1.06     13.53     13.52
 CCSD iterations        75.60      2.89     78.49     78.78
 Triples               195.11      2.52    197.63    197.56
 MP2-F12                 9.04      1.13     10.17     10.17
 F12b energy             5.78      0.06      5.84      5.85

 Program statistics:

 Available memory in ccsd:                99998934
 Min. memory needed in ccsd:               8644845
 Max. memory used in ccsd:                11598633
 Max. memory used in cckext:               8768967 (10 integral passes)



 **********************************************************************************************************************************
 DATASETS  * FILE   NREC   LENGTH (MB)   RECORD NAMES
              1      20      527.84       500      610      700      900      950      970     1000      129      960     1100   
                                          VAR    BASINP    GEOM    SYMINP    ZMAT    AOBASIS   BASIS     P2S    ABASIS      S 
                                         1400     1410     1200     1210     1080     1600     1650     1700      960(1)  1380   
                                           T        V       H0       H01     AOSYM     SMH    MOLCAS    OPER    ABASIS    JKOP   

              2       5        2.50       700     1000     2100     7360     7350   
                                         GEOM     BASIS     RHF    F12ABS    EF12   

 PROGRAMS   *        TOTAL   CCSD(T)        HF       INT
 CPU TIMES  *       319.89    298.20     11.05     10.56
 REAL TIME  *       329.59 SEC
 DISK USED  *         3.92 GB      
 SF USED    *         1.91 GB      
 GA USED    *         2.40 MB       (max)       0.00 MB       (current)
 **********************************************************************************************************************************

     CCSD(T)-F12        HF-SCF  
   -264.75944423   -263.76838325
 **********************************************************************************************************************************
 Variable memory released
