
 Primary working directories    : /scratch/kee
 Secondary working directories  : /scratch/kee
 Wavefunction directory         : /home/kee/wfu/
 Main file repository           : /scratch/kee/

 ARCHNAME  : Linux/x86_64
 FC        : /opt/intel/composer_xe_2015.0.090/bin/intel64/ifort
 FCVERSION : 15.0.0
 BLASLIB   : -L/opt/intel/mkl/lib/intel64 -lmkl_intel_ilp64 -lmkl_sequential -lmkl_core
 id        : emory

 Nodes     nprocs
 node20       3
 Number of processes for MPI-2 version of Molpro:   nprocs(total)=    4   nprocs(compute)=    3   nprocs(helper)=    1
 ga_uses_ma=false, calling ma_init with nominal heap.
 GA-space will be limited to   8.0 MW (determined by -G option)

 Using customized tuning parameters: mindgm=7; mindgv=32; mindgc=1; mindgr=1; noblas=0; mincuda=1000; minvec=7
 default implementation of scratch files=sf  

 ***,co2h2o
 memory,100,m
 basis avtz
 geomtype = xyz
 geometry = {
 6
       0.00000777
 O    10.97257393   -1.10347931    0.00000000
 O    11.76744404    1.08065151   -0.00000000
 O     6.84356282    0.00000000    0.00000000
 H     6.09556774    0.58340495    0.10287003
 H     7.59598802    0.58686026    0.10347930
 C    11.34356282    0.00000000    0.00000000
 }
 hf
 ccsd(t)-f12
 ---

 Variables initialized (665), CPU time= 0.00 sec
 Commands  initialized (462), CPU time= 0.01 sec, 486 directives.
 Default parameters read. Elapsed time= 0.03 sec

 Checking input...
 Passed
1


                                         ***  PROGRAM SYSTEM MOLPRO  ***
                         Copyright, University College Cardiff Consultants Limited, 2008

                                    Version 2010.1 linked 9 Dec 2014 15:06:28 


 **********************************************************************************************************************************
 LABEL *   co2h2o                                                                        
 Linux-2.6.32-504.el6.x86_64/node20(x86_64) 64 bit mpp version                           DATE: 18-Jan-17          TIME: 21:20:34  
 **********************************************************************************************************************************

 Patch level:      19
 **********************************************************************************************************************************

 Variable memory set to  100000000 words,  buffer space   230000 words

 SETTING BASIS          =    AVTZ
 SETTING GEOMTYPE       =    XYZ

Geometry recognized as XYZ



 Recomputing integrals since basis changed


 Using spherical harmonics

 Library entry O      S aug-cc-pVTZ          selected for orbital group  1
 Library entry O      P aug-cc-pVTZ          selected for orbital group  1
 Library entry O      D aug-cc-pVTZ          selected for orbital group  1
 Library entry O      F aug-cc-pVTZ          selected for orbital group  1
 Library entry H      S aug-cc-pVTZ          selected for orbital group  2
 Library entry H      P aug-cc-pVTZ          selected for orbital group  2
 Library entry H      D aug-cc-pVTZ          selected for orbital group  2
 Library entry C      S aug-cc-pVTZ          selected for orbital group  3
 Library entry C      P aug-cc-pVTZ          selected for orbital group  3
 Library entry C      D aug-cc-pVTZ          selected for orbital group  3
 Library entry C      F aug-cc-pVTZ          selected for orbital group  3

1PROGRAM * SEWARD (Integral evaluation for generally contracted gaussian basis sets)     Author: Roland Lindh, 1990

 Geometry written to block  1 of record 700


 Point group  C1  



 ATOMIC COORDINATES

 NR  ATOM    CHARGE       X              Y              Z

   1  O       8.00   20.735159684   -2.085273688    0.000000000
   2  O       8.00   22.237246502    2.042135397    0.000000000
   3  O       8.00   12.932459493    0.000000000    0.000000000
   4  H       1.00   11.518953644    1.102475579    0.194396184
   5  H       1.00   14.354337055    1.109005169    0.195547537
   6  C       6.00   21.436227084    0.000000000    0.000000000

 Bond lengths in Bohr (Angstrom)

 1-6  2.199968602  2-6  2.193615529  3-4  1.803119814  3-5  1.813799081
     (1.164173245)     (1.160811343)     (0.954169911)     (0.959821135)

 Bond angles

  1-6-2  177.16520951   4-3-5  103.24222917

 NUCLEAR CHARGE:                   32
 NUMBER OF PRIMITIVE AOS:         322
 NUMBER OF SYMMETRY AOS:          282
 NUMBER OF CONTRACTIONS:          230   ( 230A   )
 NUMBER OF CORE ORBITALS:           4   (   4A   )
 NUMBER OF VALENCE ORBITALS:       18   (  18A   )


 NUCLEAR REPULSION ENERGY   92.88814500


 Eigenvalues of metric

         1 0.277E-03 0.337E-03 0.351E-03 0.376E-03 0.883E-03 0.906E-03 0.107E-02 0.161E-02


 Contracted 2-electron integrals neglected if value below      1.0D-11
 AO integral compression algorithm  1   Integral accuracy      1.0D-11

     829.686 MB (compressed) written to integral file ( 25.3%)

     Node minimum: 267.387 MB, node maximum: 286.261 MB


 NUMBER OF SORTED TWO-ELECTRON INTEGRALS:  117629820.     BUFFER LENGTH:  32768
 NUMBER OF SEGMENTS:   8  SEGMENT LENGTH:   15997437      RECORD LENGTH: 524288

 Memory used in sort:      16.55 MW

 SORT1 READ   410508233. AND WROTE    65076128. INTEGRALS IN    192 RECORDS. CPU TIME:     4.48 SEC, REAL TIME:     5.11 SEC
 SORT2 READ   195554767. AND WROTE   352862895. INTEGRALS IN   3276 RECORDS. CPU TIME:     1.56 SEC, REAL TIME:     1.98 SEC

 Node minimum:   117612110.  Node maximum:   117629820. integrals

 OPERATOR DM      FOR CENTER  0  COORDINATES:    0.000000    0.000000    0.000000


 **********************************************************************************************************************************
 DATASETS  * FILE   NREC   LENGTH (MB)   RECORD NAMES
              1      18        4.62       500      610      700      900      950      970     1000      129      960     1100   
                                          VAR    BASINP    GEOM    SYMINP    ZMAT    AOBASIS   BASIS     P2S    ABASIS      S 
                                         1400     1410     1200     1210     1080     1600     1650     1700   
                                           T        V       H0       H01     AOSYM     SMH    MOLCAS    OPER   

 PROGRAMS   *        TOTAL       INT
 CPU TIMES  *        10.43     10.36
 REAL TIME  *        11.69 SEC
 DISK USED  *         3.14 GB      
 GA USED    *         0.00 MB       (max)       0.00 MB       (current)
 **********************************************************************************************************************************

1PROGRAM * RHF-SCF (CLOSED SHELL)       Authors: W. Meyer, H.-J. Werner


 NUMBER OF ELECTRONS:      16+   16-    SPACE SYMMETRY=1    SPIN SYMMETRY=Singlet 
 CONVERGENCE THRESHOLDS:    1.00E-05 (Density)    1.00E-07 (Energy)
 MAX. NUMBER OF ITERATIONS:       60
 INTERPOLATION TYPE:            DIIS
 INTERPOLATION STEPS:              2 (START)      1 (STEP)
 LEVEL SHIFTS:                  0.00 (CLOSED)  0.00 (OPEN) 



 Orbital guess generated from atomic densities. Full valence occupancy:   22

 Molecular orbital dump at record        2100.2

 ITERATION    DDIFF          GRAD             ENERGY        2-EL.EN.            DIPOLE MOMENTS         DIIS
    1      0.000D+00      0.000D+00      -263.65755704    380.986596   -0.06771    1.16978    0.19884    0
    2      0.000D+00      0.471D-02      -263.72342128    376.534003   -0.02661    0.62196    0.11315    1
    3      0.755D-02      0.321D-02      -263.76769692    379.070890   -0.03776    0.77174    0.13389    2
    4      0.312D-02      0.301D-03      -263.76819615    378.857207   -0.03898    0.76831    0.13485    3
    5      0.357D-03      0.889D-04      -263.76825569    378.861560   -0.03729    0.76814    0.13385    4
    6      0.135D-03      0.368D-04      -263.76826338    378.875659   -0.03828    0.76565    0.13399    5
    7      0.453D-04      0.972D-05      -263.76826421    378.868493   -0.03782    0.76670    0.13393    6
    8      0.156D-04      0.328D-05      -263.76826428    378.868484   -0.03808    0.76599    0.13392    7
    9      0.454D-05      0.182D-05      -263.76826429    378.869213   -0.03796    0.76636    0.13392    0

 Final occupancy:  16

 !RHF STATE 1.1 Energy               -263.768264289593
 Nuclear energy                        92.88814500
 One-electron energy                 -546.09101567
 Two-electron energy                  189.43460638
 Virial quotient                       -1.00178956
 !RHF STATE 1.1 Dipole moment          -0.03795793     0.76635685     0.13392281
 Dipole moment /Debye                  -0.09647311     1.94775724     0.34037553

 Orbital energies:

         1.1          2.1          3.1          4.1          5.1          6.1          7.1          8.1          9.1         10.1
    -20.656299   -20.654339   -20.570514   -11.463906    -1.532885    -1.479416    -1.357446    -0.802926    -0.744852    -0.718991

        11.1         12.1         13.1         14.1         15.1         16.1         17.1         18.1
     -0.716794    -0.716452    -0.590014    -0.546328    -0.546299    -0.513440     0.027134     0.044656


 **********************************************************************************************************************************
 DATASETS  * FILE   NREC   LENGTH (MB)   RECORD NAMES
              1      18        4.62       500      610      700      900      950      970     1000      129      960     1100   
                                          VAR    BASINP    GEOM    SYMINP    ZMAT    AOBASIS   BASIS     P2S    ABASIS      S 
                                         1400     1410     1200     1210     1080     1600     1650     1700   
                                           T        V       H0       H01     AOSYM     SMH    MOLCAS    OPER   

              2       3        1.44       700     1000     2100   
                                         GEOM     BASIS     RHF  

 PROGRAMS   *        TOTAL        HF       INT
 CPU TIMES  *        21.59     11.16     10.36
 REAL TIME  *        23.22 SEC
 DISK USED  *         3.18 GB      
 SF USED    *         0.21 MB      
 GA USED    *         0.00 MB       (max)       0.00 MB       (current)
 **********************************************************************************************************************************


1PROGRAM * CCSD (Closed-shell coupled cluster)     Authors: C. Hampel, H.-J. Werner, 1991, M. Deegan, P.J. Knowles, 1992

                                  CCSD-F12 implementation by  H.-J. Werner, 2007

                   Density fitting integral evaluation by F.R. Manby, 2003,2007, G. Knizia, 2010

 Basis set CC-PVTZ/JKFIT generated.      Number of basis functions:   376 
 Basis set AUG-CC-PVTZ/MP2FIT generated. Number of basis functions:   516 

 Convergence thresholds:  THRVAR = 1.00D-08  THRDEN = 1.00D-06

 CCSD(T)     terms to be evaluated (factor= 1.000)


 Number of core orbitals:           4 (   4 )
 Number of closed-shell orbitals:  12 (  12 )
 Number of external orbitals:     214 ( 214 )

 Molecular orbitals read from record     2100.2  Type=RHF/CANONICAL (state 1.1)

 MP2-F12 correlation treatment (H.-J. Werner, 2006)
 --------------------------------------------------

 Using MP2-F12 with ansatz 3C(FIX)

 Using projected zeroth-order Hamiltonian (+Z)

 FOCKRIB=T FOCKRIC=T FOCKRIP=T CABSP=T CABSA=T CABSK=T CABSF=T GBC=F EBC=F DMAT=T NOFIK=T NOPAO=1 SOLVE=-1  USEPAO=0
 EXCH_A= T EXCH_B= F EXCH_C= F EXCH_P= F
 
 Geminal basis:    OPTFULL  GEM_TYPE=SLATER  BETA=1.0  NGEM=6

 Optimizing Gaussian exponents for each gem_beta

 Geminal optimization for beta= 1.0000
 Weight function:   m=0, omega= 1.4646

 Augmented Hessian optimization of geminal fit. Trust ratio= 0.40000
 Convergence reached after   2 iterations. Final gradient= 8.24D-16, Step= 4.32D-06, Delta= 1.28D-09
 
 Alpha:                 0.19532     0.81920     2.85917     9.50073    35.69989   197.79328
 Coeff:                 0.27070     0.30552     0.18297     0.10986     0.06810     0.04224
 

 All pairs explicitly correlated. Number of r12-pairs:           78
 
 AO(A)-basis ORBITAL           loaded. Number of functions:     230
 RI(R)-basis CC-PVTZ/JKFIT     loaded. Number of functions:     376
 DF-basis CC-PVTZ/JKFIT        loaded. Number of functions:     376

 Screening thresholds:   THRAO=  1.00D-10  THRMO=  1.00D-09  THRPROD=  1.00D-09
                         THRSW=  1.00D-05  THROV=  1.00D-12  THRF12=   1.00D-08

 CPU time for Fock operators                      0.94 sec
 
 Construction of ABS:
 Smallest eigenvalue of S          2.57E-04  (threshold= 1.00E-08)
 Ratio eigmin/eigmax               1.83E-06  (threshold= 1.00E-09)
 Smallest eigenvalue of S kept     2.57E-04  (threshold= 2.57E-04, 0 functions deleted, 376 kept)
 
 Construction of CABS:
 Smallest eigenvalue of S          2.28E-08  (threshold= 1.00E-08)
 Ratio eigmin/eigmax               2.28E-08  (threshold= 1.00E-09)
 Smallest eigenvalue of S kept     2.28E-08  (threshold= 2.28E-08, 0 functions deleted, 376 kept)
 
 CPU time for CABS singles                        0.16 sec

 CABS-singles contribution of  -0.01593077 patched into reference energy.
 New reference energy        -263.78419506
 
 AO(A)-basis ORBITAL           loaded. Number of functions:     230
 RI(R)-basis CC-PVTZ/JKFIT     loaded. Number of functions:     376
 DF-basis AUG-CC-PVTZ/MP2FIT   loaded. Number of functions:     516

 Screening thresholds:   THRAO=  1.00D-10  THRMO=  1.00D-09  THRPROD=  1.00D-09
                         THRSW=  1.00D-05  THROV=  1.00D-12  THRF12=   1.00D-08

 CPU time for 3-index integral evaluation         2.65 sec
 CPU time for first  half transformation          0.21 sec (13436.6 MFLOP/sec)
 CPU time for second half transformation          0.02 sec ( 5395.2 MFLOP/sec)
 CPU time for sorting                             0.16 sec
 CPU time for fitting                             0.04 sec (34826.3 MFLOP/sec)
 CPU time for tilde quantities                    0.06 sec (30814.7 MFLOP/sec)
 CPU time for assembly                            0.82 sec (28811.8 MFLOP/sec)
 CPU time for tranop_f12                          0.88 sec (34053.7 MFLOP/sec)
 CPU time for f12 integrals (total)               6.88 sec
 F12-matrices built in  3 passes.
 F12-matrices built in  3 passes.
 F12-matrices built in  3 passes.
 F12-matrices built in  3 passes.
 FC-matrix built in  3 passes.
 CPU time for f12 matrices (total)                0.48 sec

 Diagonal F12 approximation with fixed coefficients:  TSING= 0.500,  TTRIP= 0.250 (scaled by -1/beta)

 DF-MP2-F12 energy corrections:
 ------------------------------
 Approx.                                    Singlet             Triplet             Total
 DF-MP2-F12/3*C(DX,FIX)                -0.097378778049     -0.016924934064     -0.114303712113
 DF-MP2-F12/3*C(FIX)                   -0.079793698578     -0.013388293113     -0.093181991691
 DF-MP2-F12/3C(FIX)                    -0.080156307766     -0.013414445669     -0.093570753435

 DF-MP2-F12 correlation energies:
 --------------------------------
 Approx.                                    Singlet             Triplet             Ecorr            Total Energy
 DF-MP2                                -0.538044031427     -0.343437137445     -0.881481168872   -264.665676229040
 DF-MP2-F12/3*C(DX,FIX)                -0.635422809476     -0.360362071509     -0.995784880985   -264.779979941153
 DF-MP2-F12/3*C(FIX)                   -0.617837730005     -0.356825430558     -0.974663160563   -264.758858220731
 DF-MP2-F12/3C(FIX)                    -0.618200339193     -0.356851583114     -0.975051922307   -264.759246982475

 SCS-DF-MP2 energies (F_SING= 1.20000  F_TRIP= 0.62222  F_PARALLEL= 0.33333):
 ----------------------------------------------------------------------------
 SCS-DF-MP2                            -0.859347056567   -264.643542116735
 SCS-DF-MP2-F12/3*C(DX,FIX)            -0.986732660310   -264.770927720478
 SCS-DF-MP2-F12/3*C(FIX)               -0.963429988353   -264.747625048521
 SCS-DF-MP2-F12/3C(FIX)                -0.963881392081   -264.748076452249
 Symmetry transformation completed.

 Number of N-1 electron functions:              12
 Number of N-2 electron functions:              78
 Number of singly external CSFs:              2568
 Number of doubly external CSFs:           3298596
 Total number of CSFs:                     3301165

 Pair and operator lists are different

 Length of J-op  integral file:             474.22 MB
 Length of K-op  integral file:             572.29 MB
 Length of 3-ext integral record:             0.00 MB

 For full I/O caching in triples, increase memory by 50.81 Mwords to 151.09 Mwords.

 Integral transformation finished. Total CPU:  12.42 sec, npass=  1  Memory used:  87.46 MW

 Reference energy:                   -263.78419506

 Adding F12 terms to K(Cij), methodcc=6,  factor=1.0

 ITER.      SQ.NORM     CORR.ENERGY   TOTAL ENERGY   ENERGY CHANGE        DEN1      VAR(S)    VAR(P)  DIIS     TIME
   1      1.20236093    -0.86333456  -264.64752962     0.01816203     0.04689255  0.72D-02  0.56D-02  1  1    29.84
   2      1.21673547    -0.85908027  -264.64327533     0.00425428    -0.02023284  0.86D-04  0.59D-03  2  2    38.45
   3      1.22209304    -0.85917583  -264.64337089    -0.00009556    -0.00234599  0.13D-03  0.33D-04  3  3    47.01
   4      1.22491542    -0.85904667  -264.64324173     0.00012916    -0.00141715  0.76D-05  0.41D-05  4  4    55.59
   5      1.22595357    -0.85900837  -264.64320343     0.00003830    -0.00036828  0.56D-06  0.29D-06  5  5    64.17
   6      1.22611547    -0.85898165  -264.64317671     0.00002672    -0.00000699  0.41D-07  0.25D-07  6  6    72.78
   7      1.22614465    -0.85897924  -264.64317430     0.00000241    -0.00000596  0.28D-08  0.41D-08  6  4    81.38
   8      1.22614503    -0.85897874  -264.64317380     0.00000050     0.00000197  0.41D-09  0.29D-09  6  1    90.03
   9      1.22614561    -0.85897881  -264.64317387    -0.00000007     0.00000059  0.31D-10  0.23D-10  6  2    98.65

 Norm of t1 vector:      0.10620257      S-energy:     0.00000144      T1 diagnostic:  0.01532902
                                                                       D1 diagnostic:  0.04502958

 Adding energy correction from Wij-K(Fij), methodcc=6  factor=1.0
 
  CCSD correlation energy              -0.858978806252
  MP2-F12 correction (uncoupled)       -0.092413249950
  C*T doubles correction               -0.001475528915
  f12b correction                       0.015401698934


 Total CPU time for triples:    201.66 sec


 RESULTS
 =======

  Reference energy                   -263.768264289593
  F12 singles correction               -0.015930770575

 F12 singles corrections added to reference energy

  New reference energy               -263.784195060168

  F12a singlet correction              -0.080357735659
  F12a triplet correction              -0.013531043205
  F12a total correction                -0.093888778865

 F12a corrections for ansatz F12/3C(FIX) added to CCSD energy
 
  CCSD-F12a singlet pair energy        -0.642094049270
  CCSD-F12a triplet pair energy        -0.310774973497
  CCSD-F12a correlation energy         -0.952867585116

  Triples (T) contribution             -0.037744663050
  Total correlation energy             -0.990612248167

  CCSD-F12a total energy             -264.737062645285
  CCSD[T]-F12a energy                -264.777364170347
  CCSD-T-F12a energy                 -264.773865180870
 !CCSD(T)-F12a total energy          -264.774807308335

 F12b corrections for ansatz F12/3C(FIX) added to CCSD(T)-F12a energy

  CCSD-F12b singlet pair energy        -0.627915543018
  CCSD-F12b triplet pair energy        -0.309551780815
  CCSD-F12b correlation energy         -0.937465886183

  Triples (T) contribution             -0.037744663050
  Total correlation energy             -0.975210549233

  CCSD-F12b total energy             -264.721660946351
  CCSD[T]-F12b energy                -264.761962471414
  CCSD-T-F12b energy                 -264.758463481937
 !CCSD(T)-F12b total energy          -264.759405609401

 Timing summary (sec):

 STEP                 CPU(USER)    SYS     CPU(TOT)    WALL
 Transformation         12.53      1.04     13.57     13.57
 CCSD iterations        77.14      2.87     80.01     79.98
 Triples               201.66      2.26    203.92    203.83
 MP2-F12                 9.00      1.11     10.11     10.15
 F12b energy             6.00      0.05      6.05      6.05

 Program statistics:

 Available memory in ccsd:                99998934
 Min. memory needed in ccsd:               8644845
 Max. memory used in ccsd:                11598633
 Max. memory used in cckext:               8768967 (10 integral passes)



 **********************************************************************************************************************************
 DATASETS  * FILE   NREC   LENGTH (MB)   RECORD NAMES
              1      20      527.84       500      610      700      900      950      970     1000      129      960     1100   
                                          VAR    BASINP    GEOM    SYMINP    ZMAT    AOBASIS   BASIS     P2S    ABASIS      S 
                                         1400     1410     1200     1210     1080     1600     1650     1700      960(1)  1380   
                                           T        V       H0       H01     AOSYM     SMH    MOLCAS    OPER    ABASIS    JKOP   

              2       5        2.50       700     1000     2100     7360     7350   
                                         GEOM     BASIS     RHF    F12ABS    EF12   

 PROGRAMS   *        TOTAL   CCSD(T)        HF       INT
 CPU TIMES  *       328.24    306.65     11.16     10.36
 REAL TIME  *       337.16 SEC
 DISK USED  *         4.04 GB      
 SF USED    *         1.91 GB      
 GA USED    *         2.40 MB       (max)       0.00 MB       (current)
 **********************************************************************************************************************************

     CCSD(T)-F12        HF-SCF  
   -264.75940561   -263.76826429
 **********************************************************************************************************************************
 Variable memory released
