
 Primary working directories    : /scratch/kee
 Secondary working directories  : /scratch/kee
 Wavefunction directory         : /home/kee/wfu/
 Main file repository           : /scratch/kee/

 ARCHNAME  : Linux/x86_64
 FC        : /opt/intel/composer_xe_2015.0.090/bin/intel64/ifort
 FCVERSION : 15.0.0
 BLASLIB   : -L/opt/intel/mkl/lib/intel64 -lmkl_intel_ilp64 -lmkl_sequential -lmkl_core
 id        : emory

 Nodes     nprocs
 node20       3
 Number of processes for MPI-2 version of Molpro:   nprocs(total)=    4   nprocs(compute)=    3   nprocs(helper)=    1
 ga_uses_ma=false, calling ma_init with nominal heap.
 GA-space will be limited to   8.0 MW (determined by -G option)

 Using customized tuning parameters: mindgm=7; mindgv=32; mindgc=1; mindgr=1; noblas=0; mincuda=1000; minvec=7
 default implementation of scratch files=sf  

 ***,co2h2o
 memory,100,m
 basis avtz
 geomtype = xyz
 geometry = {
 6
       0.00000777
 O    10.97257393   -1.10347931    0.00000000
 O    11.76744404    1.08065151   -0.00000000
 O     7.09356282    0.00000000    0.00000000
 H     6.34556774    0.58340495    0.10287003
 H     7.84598802    0.58686026    0.10347930
 C    11.34356282    0.00000000    0.00000000
 }
 hf
 ccsd(t)-f12
 ---

 Variables initialized (665), CPU time= 0.01 sec
 Commands  initialized (462), CPU time= 0.01 sec, 486 directives.
 Default parameters read. Elapsed time= 0.03 sec

 Checking input...
 Passed
1


                                         ***  PROGRAM SYSTEM MOLPRO  ***
                         Copyright, University College Cardiff Consultants Limited, 2008

                                    Version 2010.1 linked 9 Dec 2014 15:06:28 


 **********************************************************************************************************************************
 LABEL *   co2h2o                                                                        
 Linux-2.6.32-504.el6.x86_64/node20(x86_64) 64 bit mpp version                           DATE: 18-Jan-17          TIME: 20:51:10  
 **********************************************************************************************************************************

 Patch level:      19
 **********************************************************************************************************************************

 Variable memory set to  100000000 words,  buffer space   230000 words

 SETTING BASIS          =    AVTZ
 SETTING GEOMTYPE       =    XYZ

Geometry recognized as XYZ



 Recomputing integrals since basis changed


 Using spherical harmonics

 Library entry O      S aug-cc-pVTZ          selected for orbital group  1
 Library entry O      P aug-cc-pVTZ          selected for orbital group  1
 Library entry O      D aug-cc-pVTZ          selected for orbital group  1
 Library entry O      F aug-cc-pVTZ          selected for orbital group  1
 Library entry H      S aug-cc-pVTZ          selected for orbital group  2
 Library entry H      P aug-cc-pVTZ          selected for orbital group  2
 Library entry H      D aug-cc-pVTZ          selected for orbital group  2
 Library entry C      S aug-cc-pVTZ          selected for orbital group  3
 Library entry C      P aug-cc-pVTZ          selected for orbital group  3
 Library entry C      D aug-cc-pVTZ          selected for orbital group  3
 Library entry C      F aug-cc-pVTZ          selected for orbital group  3

1PROGRAM * SEWARD (Integral evaluation for generally contracted gaussian basis sets)     Author: Roland Lindh, 1990

 Geometry written to block  1 of record 700


 Point group  C1  



 ATOMIC COORDINATES

 NR  ATOM    CHARGE       X              Y              Z

   1  O       8.00   20.735159684   -2.085273688    0.000000000
   2  O       8.00   22.237246502    2.042135397    0.000000000
   3  O       8.00   13.404891026    0.000000000    0.000000000
   4  H       1.00   11.991385177    1.102475579    0.194396184
   5  H       1.00   14.826768588    1.109005169    0.195547537
   6  C       6.00   21.436227084    0.000000000    0.000000000

 Bond lengths in Bohr (Angstrom)

 1-6  2.199968602  2-6  2.193615529  3-4  1.803119814  3-5  1.813799081
     (1.164173245)     (1.160811343)     (0.954169911)     (0.959821135)

 Bond angles

  1-6-2  177.16520951   4-3-5  103.24222917

 NUCLEAR CHARGE:                   32
 NUMBER OF PRIMITIVE AOS:         322
 NUMBER OF SYMMETRY AOS:          282
 NUMBER OF CONTRACTIONS:          230   ( 230A   )
 NUMBER OF CORE ORBITALS:           4   (   4A   )
 NUMBER OF VALENCE ORBITALS:       18   (  18A   )


 NUCLEAR REPULSION ENERGY   94.32941996


 Eigenvalues of metric

         1 0.263E-03 0.333E-03 0.347E-03 0.370E-03 0.874E-03 0.894E-03 0.101E-02 0.158E-02


 Contracted 2-electron integrals neglected if value below      1.0D-11
 AO integral compression algorithm  1   Integral accuracy      1.0D-11

     877.134 MB (compressed) written to integral file ( 26.7%)

     Node minimum: 282.591 MB, node maximum: 304.611 MB


 NUMBER OF SORTED TWO-ELECTRON INTEGRALS:  117629820.     BUFFER LENGTH:  32768
 NUMBER OF SEGMENTS:   8  SEGMENT LENGTH:   15997437      RECORD LENGTH: 524288

 Memory used in sort:      16.55 MW

 SORT1 READ   410659545. AND WROTE    68687602. INTEGRALS IN    200 RECORDS. CPU TIME:     4.64 SEC, REAL TIME:     5.31 SEC
 SORT2 READ   206517960. AND WROTE   352862895. INTEGRALS IN   3234 RECORDS. CPU TIME:     1.55 SEC, REAL TIME:     2.08 SEC

 Node minimum:   117612110.  Node maximum:   117629820. integrals

 OPERATOR DM      FOR CENTER  0  COORDINATES:    0.000000    0.000000    0.000000


 **********************************************************************************************************************************
 DATASETS  * FILE   NREC   LENGTH (MB)   RECORD NAMES
              1      18        4.62       500      610      700      900      950      970     1000      129      960     1100   
                                          VAR    BASINP    GEOM    SYMINP    ZMAT    AOBASIS   BASIS     P2S    ABASIS      S 
                                         1400     1410     1200     1210     1080     1600     1650     1700   
                                           T        V       H0       H01     AOSYM     SMH    MOLCAS    OPER   

 PROGRAMS   *        TOTAL       INT
 CPU TIMES  *        10.60     10.52
 REAL TIME  *        12.01 SEC
 DISK USED  *         3.30 GB      
 GA USED    *         0.00 MB       (max)       0.00 MB       (current)
 **********************************************************************************************************************************

1PROGRAM * RHF-SCF (CLOSED SHELL)       Authors: W. Meyer, H.-J. Werner


 NUMBER OF ELECTRONS:      16+   16-    SPACE SYMMETRY=1    SPIN SYMMETRY=Singlet 
 CONVERGENCE THRESHOLDS:    1.00E-05 (Density)    1.00E-07 (Energy)
 MAX. NUMBER OF ITERATIONS:       60
 INTERPOLATION TYPE:            DIIS
 INTERPOLATION STEPS:              2 (START)      1 (STEP)
 LEVEL SHIFTS:                  0.00 (CLOSED)  0.00 (OPEN) 



 Orbital guess generated from atomic densities. Full valence occupancy:   22

 Molecular orbital dump at record        2100.2

 ITERATION    DDIFF          GRAD             ENERGY        2-EL.EN.            DIPOLE MOMENTS         DIIS
    1      0.000D+00      0.000D+00      -263.65701708    383.838373   -0.06680    1.16935    0.19881    0
    2      0.000D+00      0.472D-02      -263.72298309    379.401326   -0.03048    0.61169    0.11232    1
    3      0.756D-02      0.322D-02      -263.76743612    381.934924   -0.03919    0.76630    0.13333    2
    4      0.312D-02      0.302D-03      -263.76793643    381.720931   -0.04086    0.76170    0.13431    3
    5      0.358D-03      0.895D-04      -263.76799631    381.725517   -0.03893    0.76232    0.13331    4
    6      0.136D-03      0.372D-04      -263.76800416    381.739546   -0.04008    0.75937    0.13344    5
    7      0.456D-04      0.998D-05      -263.76800501    381.732630   -0.03958    0.76057    0.13338    6
    8      0.159D-04      0.347D-05      -263.76800509    381.732423   -0.03985    0.75983    0.13337    7
    9      0.467D-05      0.180D-05      -263.76800510    381.733224   -0.03974    0.76018    0.13338    0

 Final occupancy:  16

 !RHF STATE 1.1 Energy               -263.768005096772
 Nuclear energy                        94.32941996
 One-electron energy                 -548.96403705
 Two-electron energy                  190.86661200
 Virial quotient                       -1.00178626
 !RHF STATE 1.1 Dipole moment          -0.03974439     0.76018211     0.13337628
 Dipole moment /Debye                  -0.10101354     1.93206364     0.33898649

 Orbital energies:

         1.1          2.1          3.1          4.1          5.1          6.1          7.1          8.1          9.1         10.1
    -20.656599   -20.654470   -20.571014   -11.464050    -1.533116    -1.479602    -1.357941    -0.803090    -0.744971    -0.720091

        11.1         12.1         13.1         14.1         15.1         16.1         17.1         18.1
     -0.716994    -0.716177    -0.590444    -0.546488    -0.546450    -0.513909     0.027281     0.045016


 **********************************************************************************************************************************
 DATASETS  * FILE   NREC   LENGTH (MB)   RECORD NAMES
              1      18        4.62       500      610      700      900      950      970     1000      129      960     1100   
                                          VAR    BASINP    GEOM    SYMINP    ZMAT    AOBASIS   BASIS     P2S    ABASIS      S 
                                         1400     1410     1200     1210     1080     1600     1650     1700   
                                           T        V       H0       H01     AOSYM     SMH    MOLCAS    OPER   

              2       3        1.44       700     1000     2100   
                                         GEOM     BASIS     RHF  

 PROGRAMS   *        TOTAL        HF       INT
 CPU TIMES  *        21.92     11.32     10.52
 REAL TIME  *        23.73 SEC
 DISK USED  *         3.33 GB      
 SF USED    *         0.21 MB      
 GA USED    *         0.00 MB       (max)       0.00 MB       (current)
 **********************************************************************************************************************************


1PROGRAM * CCSD (Closed-shell coupled cluster)     Authors: C. Hampel, H.-J. Werner, 1991, M. Deegan, P.J. Knowles, 1992

                                  CCSD-F12 implementation by  H.-J. Werner, 2007

                   Density fitting integral evaluation by F.R. Manby, 2003,2007, G. Knizia, 2010

 Basis set CC-PVTZ/JKFIT generated.      Number of basis functions:   376 
 Basis set AUG-CC-PVTZ/MP2FIT generated. Number of basis functions:   516 

 Convergence thresholds:  THRVAR = 1.00D-08  THRDEN = 1.00D-06

 CCSD(T)     terms to be evaluated (factor= 1.000)


 Number of core orbitals:           4 (   4 )
 Number of closed-shell orbitals:  12 (  12 )
 Number of external orbitals:     214 ( 214 )

 Molecular orbitals read from record     2100.2  Type=RHF/CANONICAL (state 1.1)

 MP2-F12 correlation treatment (H.-J. Werner, 2006)
 --------------------------------------------------

 Using MP2-F12 with ansatz 3C(FIX)

 Using projected zeroth-order Hamiltonian (+Z)

 FOCKRIB=T FOCKRIC=T FOCKRIP=T CABSP=T CABSA=T CABSK=T CABSF=T GBC=F EBC=F DMAT=T NOFIK=T NOPAO=1 SOLVE=-1  USEPAO=0
 EXCH_A= T EXCH_B= F EXCH_C= F EXCH_P= F
 
 Geminal basis:    OPTFULL  GEM_TYPE=SLATER  BETA=1.0  NGEM=6

 Optimizing Gaussian exponents for each gem_beta

 Geminal optimization for beta= 1.0000
 Weight function:   m=0, omega= 1.4646

 Augmented Hessian optimization of geminal fit. Trust ratio= 0.40000
 Convergence reached after   2 iterations. Final gradient= 8.24D-16, Step= 4.32D-06, Delta= 1.28D-09
 
 Alpha:                 0.19532     0.81920     2.85917     9.50073    35.69989   197.79328
 Coeff:                 0.27070     0.30552     0.18297     0.10986     0.06810     0.04224
 

 All pairs explicitly correlated. Number of r12-pairs:           78
 
 AO(A)-basis ORBITAL           loaded. Number of functions:     230
 RI(R)-basis CC-PVTZ/JKFIT     loaded. Number of functions:     376
 DF-basis CC-PVTZ/JKFIT        loaded. Number of functions:     376

 Screening thresholds:   THRAO=  1.00D-10  THRMO=  1.00D-09  THRPROD=  1.00D-09
                         THRSW=  1.00D-05  THROV=  1.00D-12  THRF12=   1.00D-08

 CPU time for Fock operators                      0.90 sec
 
 Construction of ABS:
 Smallest eigenvalue of S          2.56E-04  (threshold= 1.00E-08)
 Ratio eigmin/eigmax               1.83E-06  (threshold= 1.00E-09)
 Smallest eigenvalue of S kept     2.56E-04  (threshold= 2.56E-04, 0 functions deleted, 376 kept)
 
 Construction of CABS:
 Smallest eigenvalue of S          2.27E-08  (threshold= 1.00E-08)
 Ratio eigmin/eigmax               2.27E-08  (threshold= 1.00E-09)
 Smallest eigenvalue of S kept     2.27E-08  (threshold= 2.27E-08, 0 functions deleted, 376 kept)
 
 CPU time for CABS singles                        0.15 sec

 CABS-singles contribution of  -0.01592842 patched into reference energy.
 New reference energy        -263.78393352
 
 AO(A)-basis ORBITAL           loaded. Number of functions:     230
 RI(R)-basis CC-PVTZ/JKFIT     loaded. Number of functions:     376
 DF-basis AUG-CC-PVTZ/MP2FIT   loaded. Number of functions:     516

 Screening thresholds:   THRAO=  1.00D-10  THRMO=  1.00D-09  THRPROD=  1.00D-09
                         THRSW=  1.00D-05  THROV=  1.00D-12  THRF12=   1.00D-08

 CPU time for 3-index integral evaluation         2.69 sec
 CPU time for first  half transformation          0.20 sec (14990.1 MFLOP/sec)
 CPU time for second half transformation          0.05 sec ( 2223.8 MFLOP/sec)
 CPU time for sorting                             0.16 sec
 CPU time for fitting                             0.06 sec (23217.5 MFLOP/sec)
 CPU time for tilde quantities                    0.08 sec (23111.0 MFLOP/sec)
 CPU time for assembly                            0.75 sec (31258.2 MFLOP/sec)
 CPU time for tranop_f12                          0.88 sec (34418.5 MFLOP/sec)
 CPU time for f12 integrals (total)               6.84 sec
 F12-matrices built in  3 passes.
 F12-matrices built in  3 passes.
 F12-matrices built in  3 passes.
 F12-matrices built in  3 passes.
 FC-matrix built in  3 passes.
 CPU time for f12 matrices (total)                0.49 sec

 Diagonal F12 approximation with fixed coefficients:  TSING= 0.500,  TTRIP= 0.250 (scaled by -1/beta)

 DF-MP2-F12 energy corrections:
 ------------------------------
 Approx.                                    Singlet             Triplet             Total
 DF-MP2-F12/3*C(DX,FIX)                -0.097361810493     -0.016924473704     -0.114286284197
 DF-MP2-F12/3*C(FIX)                   -0.079777400597     -0.013389007285     -0.093166407882
 DF-MP2-F12/3C(FIX)                    -0.080141448413     -0.013416095968     -0.093557544381

 DF-MP2-F12 correlation energies:
 --------------------------------
 Approx.                                    Singlet             Triplet             Ecorr            Total Energy
 DF-MP2                                -0.538125009629     -0.343551929404     -0.881676939034   -264.665610454504
 DF-MP2-F12/3*C(DX,FIX)                -0.635486820122     -0.360476403108     -0.995963223230   -264.779896738701
 DF-MP2-F12/3*C(FIX)                   -0.617902410226     -0.356940936689     -0.974843346915   -264.758776862386
 DF-MP2-F12/3C(FIX)                    -0.618266458042     -0.356968025372     -0.975234483415   -264.759167998885

 SCS-DF-MP2 energies (F_SING= 1.20000  F_TRIP= 0.62222  F_PARALLEL= 0.33333):
 ----------------------------------------------------------------------------
 SCS-DF-MP2                            -0.859515656518   -264.643449171989
 SCS-DF-MP2-F12/3*C(DX,FIX)            -0.986880612747   -264.770814128218
 SCS-DF-MP2-F12/3*C(FIX)               -0.963579475100   -264.747512990571
 SCS-DF-MP2-F12/3C(FIX)                -0.964033187660   -264.747966703131
 Symmetry transformation completed.

 Number of N-1 electron functions:              12
 Number of N-2 electron functions:              78
 Number of singly external CSFs:              2568
 Number of doubly external CSFs:           3298596
 Total number of CSFs:                     3301165

 Pair and operator lists are different

 Length of J-op  integral file:             474.22 MB
 Length of K-op  integral file:             572.29 MB
 Length of 3-ext integral record:             0.00 MB

 For full I/O caching in triples, increase memory by 50.81 Mwords to 151.09 Mwords.

 Integral transformation finished. Total CPU:  13.03 sec, npass=  1  Memory used:  87.46 MW

 Reference energy:                   -263.78393352

 Adding F12 terms to K(Cij), methodcc=6,  factor=1.0

 ITER.      SQ.NORM     CORR.ENERGY   TOTAL ENERGY   ENERGY CHANGE        DEN1      VAR(S)    VAR(P)  DIIS     TIME
   1      1.20242470    -0.86350573  -264.64743925     0.01818633     0.04693853  0.72D-02  0.56D-02  1  1    30.99
   2      1.21681417    -0.85924701  -264.64318053     0.00425872    -0.02025048  0.86D-04  0.59D-03  2  2    40.35
   3      1.22217359    -0.85934252  -264.64327603    -0.00009551    -0.00234378  0.13D-03  0.33D-04  3  3    48.93
   4      1.22500043    -0.85921309  -264.64314661     0.00012943    -0.00141839  0.76D-05  0.42D-05  4  4    58.25
   5      1.22604036    -0.85917470  -264.64310822     0.00003839    -0.00036866  0.56D-06  0.29D-06  5  5    67.62
   6      1.22620235    -0.85914800  -264.64308151     0.00002670    -0.00000683  0.41D-07  0.25D-07  6  6    77.05
   7      1.22623155    -0.85914559  -264.64307910     0.00000241    -0.00000593  0.29D-08  0.42D-08  6  4    86.49
   8      1.22623196    -0.85914509  -264.64307861     0.00000050     0.00000197  0.42D-09  0.29D-09  6  1    95.85
   9      1.22623253    -0.85914516  -264.64307867    -0.00000007     0.00000060  0.32D-10  0.24D-10  6  2   105.21

 Norm of t1 vector:      0.10626088      S-energy:     0.00000155      T1 diagnostic:  0.01533744
                                                                       D1 diagnostic:  0.04504709

 Adding energy correction from Wij-K(Fij), methodcc=6  factor=1.0
 
  CCSD correlation energy              -0.859145157331
  MP2-F12 correction (uncoupled)       -0.092397915147
  C*T doubles correction               -0.001476263800
  f12b correction                       0.015401329292


 Total CPU time for triples:    223.58 sec


 RESULTS
 =======

  Reference energy                   -263.768005096773
  F12 singles correction               -0.015928418698

 F12 singles corrections added to reference energy

  New reference energy               -263.783933515471

  F12a singlet correction              -0.080342135214
  F12a triplet correction              -0.013532043733
  F12a total correction                -0.093874178947

 F12a corrections for ansatz F12/3C(FIX) added to CCSD energy
 
  CCSD-F12a singlet pair energy        -0.642147484002
  CCSD-F12a triplet pair energy        -0.310873402793
  CCSD-F12a correlation energy         -0.953019336277

  Triples (T) contribution             -0.037776291025
  Total correlation energy             -0.990795627303

  CCSD-F12a total energy             -264.736952851748
  CCSD[T]-F12a energy                -264.777288915568
  CCSD-T-F12a energy                 -264.773786035444
 !CCSD(T)-F12a total energy          -264.774729142773

 F12b corrections for ansatz F12/3C(FIX) added to CCSD(T)-F12a energy

  CCSD-F12b singlet pair energy        -0.627969514833
  CCSD-F12b triplet pair energy        -0.309650042670
  CCSD-F12b correlation energy         -0.937618006986

  Triples (T) contribution             -0.037776291025
  Total correlation energy             -0.975394298011

  CCSD-F12b total energy             -264.721551522456
  CCSD[T]-F12b energy                -264.761887586277
  CCSD-T-F12b energy                 -264.758384706153
 !CCSD(T)-F12b total energy          -264.759327813482

 Timing summary (sec):

 STEP                 CPU(USER)    SYS     CPU(TOT)    WALL
 Transformation         13.14      1.09     14.23     14.21
 CCSD iterations        83.20      3.36     86.56     86.59
 Triples               223.58      3.00    226.58    226.48
 MP2-F12                 8.89      1.11     10.00     10.03
 F12b energy             6.60      0.06      6.66      6.66

 Program statistics:

 Available memory in ccsd:                99998934
 Min. memory needed in ccsd:               8644845
 Max. memory used in ccsd:                11598633
 Max. memory used in cckext:               8768967 (10 integral passes)



 **********************************************************************************************************************************
 DATASETS  * FILE   NREC   LENGTH (MB)   RECORD NAMES
              1      20      527.84       500      610      700      900      950      970     1000      129      960     1100   
                                          VAR    BASINP    GEOM    SYMINP    ZMAT    AOBASIS   BASIS     P2S    ABASIS      S 
                                         1400     1410     1200     1210     1080     1600     1650     1700      960(1)  1380   
                                           T        V       H0       H01     AOSYM     SMH    MOLCAS    OPER    ABASIS    JKOP   

              2       5        2.50       700     1000     2100     7360     7350   
                                         GEOM     BASIS     RHF    F12ABS    EF12   

 PROGRAMS   *        TOTAL   CCSD(T)        HF       INT
 CPU TIMES  *       357.36    335.44     11.32     10.52
 REAL TIME  *       368.07 SEC
 DISK USED  *         4.20 GB      
 SF USED    *         1.91 GB      
 GA USED    *         2.40 MB       (max)       0.00 MB       (current)
 **********************************************************************************************************************************

     CCSD(T)-F12        HF-SCF  
   -264.75932781   -263.76800510
 **********************************************************************************************************************************
 Variable memory released
