
 Primary working directories    : /scratch/kee
 Secondary working directories  : /scratch/kee
 Wavefunction directory         : /home/kee/wfu/
 Main file repository           : /scratch/kee/

 ARCHNAME  : Linux/x86_64
 FC        : /opt/intel/composer_xe_2015.0.090/bin/intel64/ifort
 FCVERSION : 15.0.0
 BLASLIB   : -L/opt/intel/mkl/lib/intel64 -lmkl_intel_ilp64 -lmkl_sequential -lmkl_core
 id        : emory

 Nodes     nprocs
 node22       3
 Number of processes for MPI-2 version of Molpro:   nprocs(total)=    4   nprocs(compute)=    3   nprocs(helper)=    1
 ga_uses_ma=false, calling ma_init with nominal heap.
 GA-space will be limited to   8.0 MW (determined by -G option)

 Using customized tuning parameters: mindgm=7; mindgv=32; mindgc=1; mindgr=1; noblas=0; mincuda=1000; minvec=7
 default implementation of scratch files=sf  

 ***,co2h2o
 memory,100,m
 basis avtz
 geomtype = xyz
 geometry = {
 6
    -264.76489694
 O     0.82869278    1.16169550    0.00000000
 O     0.82658011   -1.16233555    0.00000000
 O   -13.14123374    0.00517046    0.00000000
 H   -13.72486675    0.76576511    0.00000000
 H   -13.72459864   -0.75563146    0.00000000
 C     0.80876519   -0.00029961    0.00000000
 }
 hf
 ccsd(t)-f12
 ---

 Variables initialized (665), CPU time= 0.01 sec
 Commands  initialized (462), CPU time= 0.00 sec, 486 directives.
 Default parameters read. Elapsed time= 0.03 sec

 Checking input...
 Passed
1


                                         ***  PROGRAM SYSTEM MOLPRO  ***
                         Copyright, University College Cardiff Consultants Limited, 2008

                                    Version 2010.1 linked 9 Dec 2014 15:06:28 


 **********************************************************************************************************************************
 LABEL *   co2h2o                                                                        
 Linux-2.6.32-504.el6.x86_64/node22(x86_64) 64 bit mpp version                           DATE: 12-Dec-16          TIME: 20:20:33  
 **********************************************************************************************************************************

 Patch level:      19
 **********************************************************************************************************************************

 Variable memory set to  100000000 words,  buffer space   230000 words

 SETTING BASIS          =    AVTZ
 SETTING GEOMTYPE       =    XYZ

Geometry recognized as XYZ



 Recomputing integrals since basis changed


 Using spherical harmonics

 Library entry O      S aug-cc-pVTZ          selected for orbital group  1
 Library entry O      P aug-cc-pVTZ          selected for orbital group  1
 Library entry O      D aug-cc-pVTZ          selected for orbital group  1
 Library entry O      F aug-cc-pVTZ          selected for orbital group  1
 Library entry H      S aug-cc-pVTZ          selected for orbital group  2
 Library entry H      P aug-cc-pVTZ          selected for orbital group  2
 Library entry H      D aug-cc-pVTZ          selected for orbital group  2
 Library entry C      S aug-cc-pVTZ          selected for orbital group  3
 Library entry C      P aug-cc-pVTZ          selected for orbital group  3
 Library entry C      D aug-cc-pVTZ          selected for orbital group  3
 Library entry C      F aug-cc-pVTZ          selected for orbital group  3

1PROGRAM * SEWARD (Integral evaluation for generally contracted gaussian basis sets)     Author: Roland Lindh, 1990

 Geometry written to block  1 of record 700


 Point group  Cs  



 ATOMIC COORDINATES

 NR  ATOM    CHARGE       X              Y              Z

   1  O       8.00    1.566002401    2.195286343    0.000000000
   2  O       8.00    1.562010034   -2.196495862    0.000000000
   3  O       8.00  -24.833332798    0.009770753    0.000000000
   4  H       1.00  -25.936239348    1.447086339    0.000000000
   5  H       1.00  -25.935732693   -1.427936516    0.000000000
   6  C       6.00    1.528344714   -0.000566181    0.000000000

 Bond lengths in Bohr (Angstrom)

 1-6  2.196175405  2-6  2.196187724  3-4  1.811706088  3-5  1.811708509
     (1.162165971)     (1.162172490)     (0.958713571)     (0.958714852)

 Bond angles

  1-6-2  178.13918425   4-3-5  105.01947441

 NUCLEAR CHARGE:                   32
 NUMBER OF PRIMITIVE AOS:         322
 NUMBER OF SYMMETRY AOS:          282
 NUMBER OF CONTRACTIONS:          230   ( 152A'  +  78A"  )
 NUMBER OF CORE ORBITALS:           4   (   4A'  +   0A"  )
 NUMBER OF VALENCE ORBITALS:       18   (  14A'  +   4A"  )


 NUCLEAR REPULSION ENERGY   75.71201361


 Eigenvalues of metric

         1 0.349E-03 0.384E-03 0.393E-03 0.420E-03 0.902E-03 0.922E-03 0.167E-02 0.175E-02
         2 0.318E-02 0.348E-02 0.595E-02 0.124E-01 0.136E-01 0.296E-01 0.297E-01 0.319E-01


 Contracted 2-electron integrals neglected if value below      1.0D-11
 AO integral compression algorithm  1   Integral accuracy      1.0D-11

     235.667 MB (compressed) written to integral file ( 35.6%)

     Node minimum: 74.449 MB, node maximum: 82.838 MB


 NUMBER OF SORTED TWO-ELECTRON INTEGRALS:   59950380.     BUFFER LENGTH:  32768
 NUMBER OF SEGMENTS:   4  SEGMENT LENGTH:   15995235      RECORD LENGTH: 524288

 Memory used in sort:      16.55 MW

 SORT1 READ    82976622. AND WROTE    16198063. INTEGRALS IN     49 RECORDS. CPU TIME:     1.04 SEC, REAL TIME:     1.22 SEC
 SORT2 READ    48447505. AND WROTE   179836431. INTEGRALS IN    897 RECORDS. CPU TIME:     0.54 SEC, REAL TIME:     0.73 SEC

 Node minimum:    59940574.  Node maximum:    59950380. integrals

 OPERATOR DM      FOR CENTER  0  COORDINATES:    0.000000    0.000000    0.000000


 **********************************************************************************************************************************
 DATASETS  * FILE   NREC   LENGTH (MB)   RECORD NAMES
              1      18        3.74       500      610      700      900      950      970     1000      129      960     1100   
                                          VAR    BASINP    GEOM    SYMINP    ZMAT    AOBASIS   BASIS     P2S    ABASIS      S 
                                         1400     1410     1200     1210     1080     1600     1650     1700   
                                           T        V       H0       H01     AOSYM     SMH    MOLCAS    OPER   

 PROGRAMS   *        TOTAL       INT
 CPU TIMES  *         3.38      3.31
 REAL TIME  *         3.88 SEC
 DISK USED  *       840.76 MB      
 GA USED    *         0.00 MB       (max)       0.00 MB       (current)
 **********************************************************************************************************************************

1PROGRAM * RHF-SCF (CLOSED SHELL)       Authors: W. Meyer, H.-J. Werner


 NUMBER OF ELECTRONS:      16+   16-
 CONVERGENCE THRESHOLDS:    1.00E-05 (Density)    1.00E-07 (Energy)
 MAX. NUMBER OF ITERATIONS:       60
 INTERPOLATION TYPE:            DIIS
 INTERPOLATION STEPS:              2 (START)      1 (STEP)
 LEVEL SHIFTS:                  0.00 (CLOSED)  0.00 (OPEN) 



 Orbital guess generated from atomic densities. Full valence occupancy:   18   4

 Molecular orbital dump at record        2100.2

 Initial alpha occupancy:  13   3
 Initial beta  occupancy:  13   3
 Wave function symmetry:    1

 ITERATION    DDIFF          GRAD             ENERGY        2-EL.EN.            DIPOLE MOMENTS         DIIS
    1      0.000D+00      0.000D+00      -263.66023512    346.904310   -1.18419   -0.00012    0.00000    0
    2      0.000D+00      0.630D-02      -263.72551440    342.355390   -0.67980   -0.00010    0.00000    1
    3      0.101D-01      0.428D-02      -263.76889211    344.912439   -0.80599   -0.00009    0.00000    2
    4      0.416D-02      0.402D-03      -263.76938726    344.699288   -0.80945   -0.00010    0.00000    3
    5      0.485D-03      0.117D-03      -263.76944525    344.702358   -0.80396   -0.00009    0.00000    4
    6      0.181D-03      0.471D-04      -263.76945240    344.716635   -0.80463   -0.00010    0.00000    5
    7      0.603D-04      0.116D-04      -263.76945313    344.708344   -0.80418   -0.00009    0.00000    6
    8      0.197D-04      0.254D-05      -263.76945318    344.709640   -0.80419   -0.00010    0.00000    7
    9      0.541D-05      0.852D-06      -263.76945318    344.709452   -0.80416   -0.00009    0.00000    0

 Final occupancy:  13   3

 !RHF STATE 1.1 Energy               -263.769453179383
 Nuclear energy                        75.71201361
 One-electron energy                 -511.83619303
 Two-electron energy                  172.35472624
 Virial quotient                       -1.00182797
 !RHF STATE 1.1 Dipole moment          -0.80415819    -0.00009485     0.00000000
 Dipole moment /Debye                  -2.04383238    -0.00024107     0.00000000

 Orbital energies:

         1.1          2.1          3.1          4.1          5.1          6.1          7.1          8.1          9.1         10.1
    -20.652380   -20.652335   -20.567371   -11.461135    -1.530043    -1.476939    -1.352616    -0.800249    -0.742495    -0.718153

        11.1         12.1         13.1         14.1         15.1
     -0.714089    -0.583818    -0.543695     0.029338     0.047544

         1.2          2.2          3.2          4.2          5.2
     -0.714102    -0.543721    -0.510228     0.073927     0.158350


 **********************************************************************************************************************************
 DATASETS  * FILE   NREC   LENGTH (MB)   RECORD NAMES
              1      18        3.76       500      610      700      900      950      970     1000      129      960     1100   
                                          VAR    BASINP    GEOM    SYMINP    ZMAT    AOBASIS   BASIS     P2S    ABASIS      S 
                                         1400     1410     1200     1210     1080     1600     1650     1700   
                                           T        V       H0       H01     AOSYM     SMH    MOLCAS    OPER   

              2       3        0.96       700     1000     2100   
                                         GEOM     BASIS     RHF  

 PROGRAMS   *        TOTAL        HF       INT
 CPU TIMES  *         6.08      2.70      3.31
 REAL TIME  *         6.73 SEC
 DISK USED  *       865.13 MB      
 SF USED    *         0.12 MB      
 GA USED    *         0.00 MB       (max)       0.00 MB       (current)
 **********************************************************************************************************************************


1PROGRAM * CCSD (Closed-shell coupled cluster)     Authors: C. Hampel, H.-J. Werner, 1991, M. Deegan, P.J. Knowles, 1992

                                  CCSD-F12 implementation by  H.-J. Werner, 2007

                   Density fitting integral evaluation by F.R. Manby, 2003,2007, G. Knizia, 2010

 Basis set CC-PVTZ/JKFIT generated.      Number of basis functions:   376 
 Basis set AUG-CC-PVTZ/MP2FIT generated. Number of basis functions:   516 

 Convergence thresholds:  THRVAR = 1.00D-08  THRDEN = 1.00D-06

 CCSD(T)     terms to be evaluated (factor= 1.000)


 Number of core orbitals:           4 (   4   0 )
 Number of closed-shell orbitals:  12 (   9   3 )
 Number of external orbitals:     214 ( 139  75 )

 Molecular orbitals read from record     2100.2  Type=RHF/CANONICAL (state 1.1)

 MP2-F12 correlation treatment (H.-J. Werner, 2006)
 --------------------------------------------------

 Using MP2-F12 with ansatz 3C(FIX)

 Using projected zeroth-order Hamiltonian (+Z)

 FOCKRIB=T FOCKRIC=T FOCKRIP=T CABSP=T CABSA=T CABSK=T CABSF=T GBC=F EBC=F DMAT=T NOFIK=T NOPAO=1 SOLVE=-1  USEPAO=0
 EXCH_A= T EXCH_B= F EXCH_C= F EXCH_P= F
 
 Geminal basis:    OPTFULL  GEM_TYPE=SLATER  BETA=1.0  NGEM=6

 Optimizing Gaussian exponents for each gem_beta

 Geminal optimization for beta= 1.0000
 Weight function:   m=0, omega= 1.4646

 Augmented Hessian optimization of geminal fit. Trust ratio= 0.40000
 Convergence reached after   2 iterations. Final gradient= 8.24D-16, Step= 4.32D-06, Delta= 1.28D-09
 
 Alpha:                 0.19532     0.81920     2.85917     9.50073    35.69989   197.79328
 Coeff:                 0.27070     0.30552     0.18297     0.10986     0.06810     0.04224
 

 Symmetry turned off. Reference energy:       -263.769453179383

 All pairs explicitly correlated. Number of r12-pairs:           78
 
 AO(A)-basis ORBITAL           loaded. Number of functions:     230
 RI(R)-basis CC-PVTZ/JKFIT     loaded. Number of functions:     376
 DF-basis CC-PVTZ/JKFIT        loaded. Number of functions:     376

 Screening thresholds:   THRAO=  1.00D-10  THRMO=  1.00D-09  THRPROD=  1.00D-09
                         THRSW=  1.00D-05  THROV=  1.00D-12  THRF12=   1.00D-08

 CPU time for Fock operators                      0.84 sec
 
 Construction of ABS:
 Smallest eigenvalue of S          2.57E-04  (threshold= 1.00E-08)
 Ratio eigmin/eigmax               1.83E-06  (threshold= 1.00E-09)
 Smallest eigenvalue of S kept     2.57E-04  (threshold= 2.57E-04, 0 functions deleted, 376 kept)
 
 Construction of CABS:
 Smallest eigenvalue of S          2.30E-08  (threshold= 1.00E-08)
 Ratio eigmin/eigmax               2.30E-08  (threshold= 1.00E-09)
 Smallest eigenvalue of S kept     2.30E-08  (threshold= 2.30E-08, 0 functions deleted, 376 kept)
 
 CPU time for CABS singles                        0.16 sec

 CABS-singles contribution of  -0.01592484 patched into reference energy.
 New reference energy        -263.78537802
 
 AO(A)-basis ORBITAL           loaded. Number of functions:     230
 RI(R)-basis CC-PVTZ/JKFIT     loaded. Number of functions:     376
 DF-basis AUG-CC-PVTZ/MP2FIT   loaded. Number of functions:     516

 Screening thresholds:   THRAO=  1.00D-10  THRMO=  1.00D-09  THRPROD=  1.00D-09
                         THRSW=  1.00D-05  THROV=  1.00D-12  THRF12=   1.00D-08

 CPU time for 3-index integral evaluation         1.39 sec
 CPU time for first  half transformation          0.14 sec ( 8380.7 MFLOP/sec)
 CPU time for second half transformation          0.03 sec ( 2116.4 MFLOP/sec)
 CPU time for sorting                             0.09 sec
 CPU time for fitting                             0.05 sec (27861.0 MFLOP/sec)
 CPU time for tilde quantities                    0.05 sec (36977.6 MFLOP/sec)
 CPU time for assembly                            0.87 sec (25226.5 MFLOP/sec)
 CPU time for tranop_f12                          0.81 sec (34047.0 MFLOP/sec)
 CPU time for f12 integrals (total)               5.55 sec
 F12-matrices built in  3 passes.
 F12-matrices built in  3 passes.
 F12-matrices built in  3 passes.
 F12-matrices built in  3 passes.
 FC-matrix built in  3 passes.
 CPU time for f12 matrices (total)                0.49 sec

 Diagonal F12 approximation with fixed coefficients:  TSING= 0.500,  TTRIP= 0.250 (scaled by -1/beta)

 DF-MP2-F12 energy corrections:
 ------------------------------
 Approx.                                    Singlet             Triplet             Total
 DF-MP2-F12/3*C(DX,FIX)                -0.097454551666     -0.016934568531     -0.114389120198
 DF-MP2-F12/3*C(FIX)                   -0.079869960335     -0.013396598636     -0.093266558971
 DF-MP2-F12/3C(FIX)                    -0.080230766086     -0.013419721623     -0.093650487709

 DF-MP2-F12 correlation energies:
 --------------------------------
 Approx.                                    Singlet             Triplet             Ecorr            Total Energy
 DF-MP2                                -0.537727730949     -0.343070586514     -0.880798317463   -264.666176339935
 DF-MP2-F12/3*C(DX,FIX)                -0.635182282616     -0.360005155045     -0.995187437661   -264.780565460132
 DF-MP2-F12/3*C(FIX)                   -0.617597691284     -0.356467185150     -0.974064876434   -264.759442898906
 DF-MP2-F12/3C(FIX)                    -0.617958497035     -0.356490308137     -0.974448805172   -264.759826827644

 SCS-DF-MP2 energies (F_SING= 1.20000  F_TRIP= 0.62222  F_PARALLEL= 0.33333):
 ----------------------------------------------------------------------------
 SCS-DF-MP2                            -0.858739419859   -264.644117442331
 SCS-DF-MP2-F12/3*C(DX,FIX)            -0.986221946722   -264.771599969194
 SCS-DF-MP2-F12/3*C(FIX)               -0.962919033635   -264.748297056106
 SCS-DF-MP2-F12/3C(FIX)                -0.963366388172   -264.748744410644

 Symmetry restored.
 Symmetry transformation completed.

 Number of N-1 electron functions:              12
 Number of N-2 electron functions:              78
 Number of singly external CSFs:              1476
 Number of doubly external CSFs:           1686804
 Total number of CSFs:                     1688281

 Pair and operator lists are different

 Length of J-op  integral file:             466.42 MB
 Length of K-op  integral file:             526.62 MB
 Length of 3-ext integral record:             0.00 MB

 Memory could be reduced to 76.61 Mwords without degradation in triples

 Integral transformation finished. Total CPU:   4.29 sec, npass=  1  Memory used:  24.61 MW

 Reference energy:                   -263.78537802

 Adding F12 terms to K(Cij), methodcc=6,  factor=1.0

 ITER.      SQ.NORM     CORR.ENERGY   TOTAL ENERGY   ENERGY CHANGE        DEN1      VAR(S)    VAR(P)  DIIS     TIME
   1      1.20215000    -0.86274958  -264.64812761     0.01806521     0.04669864  0.72D-02  0.56D-02  1  1    14.18
   2      1.21646294    -0.85852197  -264.64390000     0.00422761    -0.02015320  0.86D-04  0.59D-03  2  2    16.68
   3      1.22182308    -0.85861795  -264.64399597    -0.00009598    -0.00236382  0.13D-03  0.32D-04  3  3    19.17
   4      1.22462470    -0.85849008  -264.64386810     0.00012788    -0.00141122  0.76D-05  0.41D-05  4  4    21.67
   5      1.22565469    -0.85845237  -264.64383039     0.00003771    -0.00036640  0.56D-06  0.29D-06  5  5    24.18
   6      1.22581688    -0.85842551  -264.64380353     0.00002686    -0.00000805  0.40D-07  0.24D-07  6  6    26.73
   7      1.22584624    -0.85842308  -264.64380110     0.00000242    -0.00000622  0.25D-08  0.40D-08  6  4    29.12
   8      1.22584653    -0.85842259  -264.64380062     0.00000049     0.00000195  0.39D-09  0.27D-09  6  1    31.65
   9      1.22584715    -0.85842266  -264.64380068    -0.00000007     0.00000056  0.26D-10  0.21D-10  6  2    34.21

 Norm of t1 vector:      0.10595786      S-energy:    -0.00000002      T1 diagnostic:  0.01529370
                                                                       D1 diagnostic:  0.04494308

 Adding energy correction from Wij-K(Fij), methodcc=6  factor=1.0
 
  CCSD correlation energy              -0.858422660017
  MP2-F12 correction (uncoupled)       -0.092493487220
  C*T doubles correction               -0.001475754179
  f12b correction                       0.015407303559


 Total CPU time for triples:     78.16 sec


 RESULTS
 =======

  Reference energy                   -263.769453179383
  F12 singles correction               -0.015924843089

 F12 singles corrections added to reference energy

  New reference energy               -263.785378022472

  F12a singlet correction              -0.080430777119
  F12a triplet correction              -0.013538464281
  F12a total correction                -0.093969241399

 F12a corrections for ansatz F12/3C(FIX) added to CCSD energy
 
  CCSD-F12a singlet pair energy        -0.641894886327
  CCSD-F12a triplet pair energy        -0.310496990622
  CCSD-F12a correlation energy         -0.952391901416

  Triples (T) contribution             -0.037639099485
  Total correlation energy             -0.990031000902

  CCSD-F12a total energy             -264.737769923888
  CCSD[T]-F12a energy                -264.777952795686
  CCSD-T-F12a energy                 -264.774471376842
 !CCSD(T)-F12a total energy          -264.775409023374

 F12b corrections for ansatz F12/3C(FIX) added to CCSD(T)-F12a energy

  CCSD-F12b singlet pair energy        -0.627710937154
  CCSD-F12b triplet pair energy        -0.309273636235
  CCSD-F12b correlation energy         -0.936984597857

  Triples (T) contribution             -0.037639099485
  Total correlation energy             -0.974623697343

  CCSD-F12b total energy             -264.722362620329
  CCSD[T]-F12b energy                -264.762545492127
  CCSD-T-F12b energy                 -264.759064073283
 !CCSD(T)-F12b total energy          -264.760001719815

 Timing summary (sec):

 STEP                 CPU(USER)    SYS     CPU(TOT)    WALL
 Transformation          4.32      0.52      4.84      4.85
 CCSD iterations        22.43      1.42     23.85     24.37
 Triples                78.16      1.58     79.74     79.71
 MP2-F12                 7.47      1.34      8.81      8.82
 F12b energy             1.56      0.02      1.58      1.58

 Program statistics:

 Available memory in ccsd:                99998934
 Min. memory needed in ccsd:               4458306
 Max. memory used in ccsd:                 5958390
 Max. memory used in cckext:               6352469 (10 integral passes)



 **********************************************************************************************************************************
 DATASETS  * FILE   NREC   LENGTH (MB)   RECORD NAMES
              1      20      269.66       500      610      700      900      950      970     1000      129      960     1100   
                                          VAR    BASINP    GEOM    SYMINP    ZMAT    AOBASIS   BASIS     P2S    ABASIS      S 
                                         1400     1410     1200     1210     1080     1600     1650     1700      960(1)  1380   
                                           T        V       H0       H01     AOSYM     SMH    MOLCAS    OPER    ABASIS    JKOP   

              2       5        1.55       700     1000     2100     7360     7350   
                                         GEOM     BASIS     RHF    F12ABS    EF12   

 PROGRAMS   *        TOTAL   CCSD(T)        HF       INT
 CPU TIMES  *       120.04    113.96      2.70      3.31
 REAL TIME  *       126.40 SEC
 DISK USED  *         1.30 GB      
 SF USED    *         1.53 GB      
 GA USED    *         2.40 MB       (max)       0.00 MB       (current)
 **********************************************************************************************************************************

     CCSD(T)-F12        HF-SCF  
   -264.76000172   -263.76945318
 **********************************************************************************************************************************
 Variable memory released
