
 Primary working directories    : /scratch/kee
 Secondary working directories  : /scratch/kee
 Wavefunction directory         : /home/kee/wfu/
 Main file repository           : /scratch/kee/

 ARCHNAME  : Linux/x86_64
 FC        : /opt/intel/composer_xe_2015.0.090/bin/intel64/ifort
 FCVERSION : 15.0.0
 BLASLIB   : -L/opt/intel/mkl/lib/intel64 -lmkl_intel_ilp64 -lmkl_sequential -lmkl_core
 id        : emory

 Nodes     nprocs
 node24       3
 Number of processes for MPI-2 version of Molpro:   nprocs(total)=    4   nprocs(compute)=    3   nprocs(helper)=    1
 ga_uses_ma=false, calling ma_init with nominal heap.
 GA-space will be limited to   8.0 MW (determined by -G option)

 Using customized tuning parameters: mindgm=7; mindgv=32; mindgc=1; mindgr=1; noblas=0; mincuda=1000; minvec=7
 default implementation of scratch files=sf  

 ***,co2h2o
 memory,100,m
 basis avtz
 geomtype = xyz
 geometry = {
 6
       0.00000000
 O     0.02747900    1.16001200    0.00000000
 O    -0.00936500   -1.16396300    0.00000000
 O    12.97526459   -0.05437186    0.00000000
 H    13.36435959    0.38690214    0.75746400
 H    13.36435959    0.38690214   -0.75746400
 C     0.02536600   -0.00312200    0.00000000
 }
 hf
 ccsd(t)-f12
 ---

 Variables initialized (665), CPU time= 0.00 sec
 Commands  initialized (462), CPU time= 0.00 sec, 486 directives.
 Default parameters read. Elapsed time= 0.05 sec

 Checking input...
 Passed
1


                                         ***  PROGRAM SYSTEM MOLPRO  ***
                         Copyright, University College Cardiff Consultants Limited, 2008

                                    Version 2010.1 linked 9 Dec 2014 15:06:28 


 **********************************************************************************************************************************
 LABEL *   co2h2o                                                                        
 Linux-2.6.32-504.el6.x86_64/node24(x86_64) 64 bit mpp version                           DATE: 14-Dec-16          TIME: 23:56:03  
 **********************************************************************************************************************************

 Patch level:      19
 **********************************************************************************************************************************

 Variable memory set to  100000000 words,  buffer space   230000 words

 SETTING BASIS          =    AVTZ
 SETTING GEOMTYPE       =    XYZ

Geometry recognized as XYZ



 Recomputing integrals since basis changed


 Using spherical harmonics

 Library entry O      S aug-cc-pVTZ          selected for orbital group  1
 Library entry O      P aug-cc-pVTZ          selected for orbital group  1
 Library entry O      D aug-cc-pVTZ          selected for orbital group  1
 Library entry O      F aug-cc-pVTZ          selected for orbital group  1
 Library entry H      S aug-cc-pVTZ          selected for orbital group  2
 Library entry H      P aug-cc-pVTZ          selected for orbital group  2
 Library entry H      D aug-cc-pVTZ          selected for orbital group  2
 Library entry C      S aug-cc-pVTZ          selected for orbital group  3
 Library entry C      P aug-cc-pVTZ          selected for orbital group  3
 Library entry C      D aug-cc-pVTZ          selected for orbital group  3
 Library entry C      F aug-cc-pVTZ          selected for orbital group  3

1PROGRAM * SEWARD (Integral evaluation for generally contracted gaussian basis sets)     Author: Roland Lindh, 1990

 Geometry written to block  1 of record 700


 Point group  Cs  



 ATOMIC COORDINATES

 NR  ATOM    CHARGE       X              Y              Z

   1  O       8.00    0.051927784    2.192104989    0.000000000
   2  O       8.00   -0.017697285   -2.199571297    0.000000000
   3  O       8.00   24.519696558   -0.102747925    0.000000000
   4  H       1.00   25.254979547    0.731139084    1.431399514
   5  H       1.00   25.254979547    0.731139084   -1.431399514
   6  C       6.00    0.047934793   -0.005899725    0.000000000

 Bond lengths in Bohr (Angstrom)

 1-6  2.198008341  2-6  2.194653170  3-4  1.812432947  3-5  1.812432947
     (1.163135919)     (1.161360439)     (0.959098208)     (0.959098208)

 Bond angles

  1-6-2  178.39037465   4-3-5  104.32746287

 NUCLEAR CHARGE:                   32
 NUMBER OF PRIMITIVE AOS:         322
 NUMBER OF SYMMETRY AOS:          282
 NUMBER OF CONTRACTIONS:          230   ( 143A'  +  87A"  )
 NUMBER OF CORE ORBITALS:           4   (   4A'  +   0A"  )
 NUMBER OF VALENCE ORBITALS:       18   (  13A'  +   5A"  )


 NUCLEAR REPULSION ENERGY   76.35792088


 Eigenvalues of metric

         1 0.349E-03 0.386E-03 0.420E-03 0.903E-03 0.922E-03 0.175E-02 0.186E-02 0.317E-02
         2 0.395E-03 0.167E-02 0.318E-02 0.348E-02 0.509E-02 0.622E-02 0.100E-01 0.125E-01


 Contracted 2-electron integrals neglected if value below      1.0D-11
 AO integral compression algorithm  1   Integral accuracy      1.0D-11

     244.842 MB (compressed) written to integral file ( 33.5%)

     Node minimum: 71.303 MB, node maximum: 92.275 MB


 NUMBER OF SORTED TWO-ELECTRON INTEGRALS:   59530350.     BUFFER LENGTH:  32768
 NUMBER OF SEGMENTS:   4  SEGMENT LENGTH:   15999984      RECORD LENGTH: 524288

 Memory used in sort:      16.56 MW

 SORT1 READ    91495398. AND WROTE    16195666. INTEGRALS IN     49 RECORDS. CPU TIME:     1.09 SEC, REAL TIME:     1.26 SEC
 SORT2 READ    48619484. AND WROTE   178576926. INTEGRALS IN    930 RECORDS. CPU TIME:     0.54 SEC, REAL TIME:     0.71 SEC

 Node minimum:    59520934.  Node maximum:    59530350. integrals

 OPERATOR DM      FOR CENTER  0  COORDINATES:    0.000000    0.000000    0.000000


 **********************************************************************************************************************************
 DATASETS  * FILE   NREC   LENGTH (MB)   RECORD NAMES
              1      18        3.71       500      610      700      900      950      970     1000      129      960     1100   
                                          VAR    BASINP    GEOM    SYMINP    ZMAT    AOBASIS   BASIS     P2S    ABASIS      S 
                                         1400     1410     1200     1210     1080     1600     1650     1700   
                                           T        V       H0       H01     AOSYM     SMH    MOLCAS    OPER   

 PROGRAMS   *        TOTAL       INT
 CPU TIMES  *         3.24      3.16
 REAL TIME  *         3.85 SEC
 DISK USED  *       843.92 MB      
 GA USED    *         0.00 MB       (max)       0.00 MB       (current)
 **********************************************************************************************************************************

1PROGRAM * RHF-SCF (CLOSED SHELL)       Authors: W. Meyer, H.-J. Werner


 NUMBER OF ELECTRONS:      16+   16-
 CONVERGENCE THRESHOLDS:    1.00E-05 (Density)    1.00E-07 (Energy)
 MAX. NUMBER OF ITERATIONS:       60
 INTERPOLATION TYPE:            DIIS
 INTERPOLATION STEPS:              2 (START)      1 (STEP)
 LEVEL SHIFTS:                  0.00 (CLOSED)  0.00 (OPEN) 



 Orbital guess generated from atomic densities. Full valence occupancy:   17   5

 Molecular orbital dump at record        2100.2

 Initial alpha occupancy:  13   3
 Initial beta  occupancy:  13   3
 Wave function symmetry:    1

 ITERATION    DDIFF          GRAD             ENERGY        2-EL.EN.            DIPOLE MOMENTS         DIIS
    1      0.000D+00      0.000D+00      -263.66005379    348.178041    0.79962    0.84407    0.00000    0
    2      0.000D+00      0.643D-02      -263.72540155    343.635874    0.45410    0.49961    0.00000    1
    3      0.103D-01      0.437D-02      -263.76883449    346.193553    0.54188    0.58023    0.00000    2
    4      0.424D-02      0.410D-03      -263.76932989    345.979828    0.54394    0.58441    0.00000    3
    5      0.493D-03      0.119D-03      -263.76938798    345.983171    0.54029    0.57972    0.00000    4
    6      0.185D-03      0.482D-04      -263.76939515    345.997400    0.54072    0.58063    0.00000    5
    7      0.614D-04      0.119D-04      -263.76939589    345.989116    0.54042    0.58013    0.00000    6
    8      0.201D-04      0.263D-05      -263.76939594    345.990396    0.54043    0.58024    0.00000    7
    9      0.547D-05      0.101D-05      -263.76939594    345.990228    0.54040    0.58012    0.00000    0

 Final occupancy:  13   3

 !RHF STATE 1.1 Energy               -263.769395937711
 Nuclear energy                        76.35792088
 One-electron energy                 -513.12243101
 Two-electron energy                  172.99511420
 Virial quotient                       -1.00183204
 !RHF STATE 1.1 Dipole moment           0.54040497     0.58011582     0.00000000
 Dipole moment /Debye                   1.37348247     1.47441076     0.00000000

 Orbital energies:

         1.1          2.1          3.1          4.1          5.1          6.1          7.1          8.1          9.1         10.1
    -20.652840   -20.652299   -20.567769   -11.461368    -1.530195    -1.477084    -1.352941    -0.800448    -0.742671    -0.714248

        11.1         12.1         13.1         14.1         15.1
     -0.585125    -0.543888    -0.510427     0.029261     0.048218

         1.2          2.2          3.2          4.2          5.2
     -0.716630    -0.714259    -0.543908     0.047552     0.073733


 **********************************************************************************************************************************
 DATASETS  * FILE   NREC   LENGTH (MB)   RECORD NAMES
              1      18        3.72       500      610      700      900      950      970     1000      129      960     1100   
                                          VAR    BASINP    GEOM    SYMINP    ZMAT    AOBASIS   BASIS     P2S    ABASIS      S 
                                         1400     1410     1200     1210     1080     1600     1650     1700   
                                           T        V       H0       H01     AOSYM     SMH    MOLCAS    OPER   

              2       3        0.94       700     1000     2100   
                                         GEOM     BASIS     RHF  

 PROGRAMS   *        TOTAL        HF       INT
 CPU TIMES  *         5.81      2.56      3.16
 REAL TIME  *         6.55 SEC
 DISK USED  *       867.75 MB      
 SF USED    *         0.11 MB      
 GA USED    *         0.00 MB       (max)       0.00 MB       (current)
 **********************************************************************************************************************************


1PROGRAM * CCSD (Closed-shell coupled cluster)     Authors: C. Hampel, H.-J. Werner, 1991, M. Deegan, P.J. Knowles, 1992

                                  CCSD-F12 implementation by  H.-J. Werner, 2007

                   Density fitting integral evaluation by F.R. Manby, 2003,2007, G. Knizia, 2010

 Basis set CC-PVTZ/JKFIT generated.      Number of basis functions:   376 
 Basis set AUG-CC-PVTZ/MP2FIT generated. Number of basis functions:   516 

 Convergence thresholds:  THRVAR = 1.00D-08  THRDEN = 1.00D-06

 CCSD(T)     terms to be evaluated (factor= 1.000)


 Number of core orbitals:           4 (   4   0 )
 Number of closed-shell orbitals:  12 (   9   3 )
 Number of external orbitals:     214 ( 130  84 )

 Molecular orbitals read from record     2100.2  Type=RHF/CANONICAL (state 1.1)

 MP2-F12 correlation treatment (H.-J. Werner, 2006)
 --------------------------------------------------

 Using MP2-F12 with ansatz 3C(FIX)

 Using projected zeroth-order Hamiltonian (+Z)

 FOCKRIB=T FOCKRIC=T FOCKRIP=T CABSP=T CABSA=T CABSK=T CABSF=T GBC=F EBC=F DMAT=T NOFIK=T NOPAO=1 SOLVE=-1  USEPAO=0
 EXCH_A= T EXCH_B= F EXCH_C= F EXCH_P= F
 
 Geminal basis:    OPTFULL  GEM_TYPE=SLATER  BETA=1.0  NGEM=6

 Optimizing Gaussian exponents for each gem_beta

 Geminal optimization for beta= 1.0000
 Weight function:   m=0, omega= 1.4646

 Augmented Hessian optimization of geminal fit. Trust ratio= 0.40000
 Convergence reached after   2 iterations. Final gradient= 8.24D-16, Step= 4.32D-06, Delta= 1.28D-09
 
 Alpha:                 0.19532     0.81920     2.85917     9.50073    35.69989   197.79328
 Coeff:                 0.27070     0.30552     0.18297     0.10986     0.06810     0.04224
 

 Symmetry turned off. Reference energy:       -263.769395937710

 All pairs explicitly correlated. Number of r12-pairs:           78
 
 AO(A)-basis ORBITAL           loaded. Number of functions:     230
 RI(R)-basis CC-PVTZ/JKFIT     loaded. Number of functions:     376
 DF-basis CC-PVTZ/JKFIT        loaded. Number of functions:     376

 Screening thresholds:   THRAO=  1.00D-10  THRMO=  1.00D-09  THRPROD=  1.00D-09
                         THRSW=  1.00D-05  THROV=  1.00D-12  THRF12=   1.00D-08

 CPU time for Fock operators                      0.84 sec
 
 Construction of ABS:
 Smallest eigenvalue of S          2.57E-04  (threshold= 1.00E-08)
 Ratio eigmin/eigmax               1.83E-06  (threshold= 1.00E-09)
 Smallest eigenvalue of S kept     2.57E-04  (threshold= 2.57E-04, 0 functions deleted, 376 kept)
 
 Construction of CABS:
 Smallest eigenvalue of S          2.30E-08  (threshold= 1.00E-08)
 Ratio eigmin/eigmax               2.30E-08  (threshold= 1.00E-09)
 Smallest eigenvalue of S kept     2.30E-08  (threshold= 2.30E-08, 0 functions deleted, 376 kept)
 
 CPU time for CABS singles                        0.16 sec

 CABS-singles contribution of  -0.01592221 patched into reference energy.
 New reference energy        -263.78531814
 
 AO(A)-basis ORBITAL           loaded. Number of functions:     230
 RI(R)-basis CC-PVTZ/JKFIT     loaded. Number of functions:     376
 DF-basis AUG-CC-PVTZ/MP2FIT   loaded. Number of functions:     516

 Screening thresholds:   THRAO=  1.00D-10  THRMO=  1.00D-09  THRPROD=  1.00D-09
                         THRSW=  1.00D-05  THROV=  1.00D-12  THRF12=   1.00D-08

 CPU time for 3-index integral evaluation         1.43 sec
 CPU time for first  half transformation          0.20 sec ( 7727.6 MFLOP/sec)
 CPU time for second half transformation          0.02 sec ( 3575.7 MFLOP/sec)
 CPU time for sorting                             0.10 sec
 CPU time for fitting                             0.05 sec (27861.0 MFLOP/sec)
 CPU time for tilde quantities                    0.06 sec (30956.7 MFLOP/sec)
 CPU time for assembly                            0.75 sec (30808.8 MFLOP/sec)
 CPU time for tranop_f12                          0.90 sec (33382.7 MFLOP/sec)
 CPU time for f12 integrals (total)               5.57 sec
 F12-matrices built in  3 passes.
 F12-matrices built in  3 passes.
 F12-matrices built in  3 passes.
 F12-matrices built in  3 passes.
 FC-matrix built in  3 passes.
 CPU time for f12 matrices (total)                0.48 sec

 Diagonal F12 approximation with fixed coefficients:  TSING= 0.500,  TTRIP= 0.250 (scaled by -1/beta)

 DF-MP2-F12 energy corrections:
 ------------------------------
 Approx.                                    Singlet             Triplet             Total
 DF-MP2-F12/3*C(DX,FIX)                -0.097445630407     -0.016932792984     -0.114378423391
 DF-MP2-F12/3*C(FIX)                   -0.079860845493     -0.013395140992     -0.093255986485
 DF-MP2-F12/3C(FIX)                    -0.080222319546     -0.013418593121     -0.093640912667

 DF-MP2-F12 correlation energies:
 --------------------------------
 Approx.                                    Singlet             Triplet             Ecorr            Total Energy
 DF-MP2                                -0.537789176959     -0.343110493977     -0.880899670936   -264.666217815906
 DF-MP2-F12/3*C(DX,FIX)                -0.635234807366     -0.360043286961     -0.995278094327   -264.780596239297
 DF-MP2-F12/3*C(FIX)                   -0.617650022452     -0.356505634969     -0.974155657421   -264.759473802391
 DF-MP2-F12/3C(FIX)                    -0.618011496504     -0.356529087098     -0.974540583602   -264.759858728573

 SCS-DF-MP2 energies (F_SING= 1.20000  F_TRIP= 0.62222  F_PARALLEL= 0.33333):
 ----------------------------------------------------------------------------
 SCS-DF-MP2                            -0.858837986380   -264.644156131351
 SCS-DF-MP2-F12/3*C(DX,FIX)            -0.986308702948   -264.771626847918
 SCS-DF-MP2-F12/3*C(FIX)               -0.963005755367   -264.748323900338
 SCS-DF-MP2-F12/3C(FIX)                -0.963454116666   -264.748772261637

 Symmetry restored.
 Symmetry transformation completed.

 Number of N-1 electron functions:              12
 Number of N-2 electron functions:              78
 Number of singly external CSFs:              1422
 Number of doubly external CSFs:           1668984
 Total number of CSFs:                     1670407

 Pair and operator lists are different

 Length of J-op  integral file:             466.33 MB
 Length of K-op  integral file:             525.76 MB
 Length of 3-ext integral record:             0.00 MB

 Memory could be reduced to 76.19 Mwords without degradation in triples

 Integral transformation finished. Total CPU:   3.43 sec, npass=  1  Memory used:  26.50 MW

 Reference energy:                   -263.78531814

 Adding F12 terms to K(Cij), methodcc=6,  factor=1.0

 ITER.      SQ.NORM     CORR.ENERGY   TOTAL ENERGY   ENERGY CHANGE        DEN1      VAR(S)    VAR(P)  DIIS     TIME
   1      1.20220534    -0.86283782  -264.64815596     0.01807827     0.04672752  0.72D-02  0.56D-02  1  1    13.04
   2      1.21652733    -0.85860831  -264.64392645     0.00422951    -0.02016337  0.86D-04  0.59D-03  2  2    15.26
   3      1.22189329    -0.85870465  -264.64402279    -0.00009634    -0.00236639  0.13D-03  0.32D-04  3  3    17.49
   4      1.22469764    -0.85857667  -264.64389482     0.00012797    -0.00141238  0.76D-05  0.41D-05  4  4    19.74
   5      1.22572848    -0.85853898  -264.64385712     0.00003769    -0.00036668  0.56D-06  0.29D-06  5  5    21.99
   6      1.22589074    -0.85851212  -264.64383026     0.00002686    -0.00000806  0.40D-07  0.24D-07  6  6    24.27
   7      1.22592012    -0.85850969  -264.64382783     0.00000243    -0.00000622  0.26D-08  0.40D-08  6  4    26.55
   8      1.22592044    -0.85850920  -264.64382734     0.00000049     0.00000194  0.39D-09  0.27D-09  6  1    28.82
   9      1.22592105    -0.85850926  -264.64382741    -0.00000007     0.00000056  0.26D-10  0.21D-10  6  2    31.06

 Norm of t1 vector:      0.10599805      S-energy:     0.00000000      T1 diagnostic:  0.01529950
                                                                       D1 diagnostic:  0.04495008

 Adding energy correction from Wij-K(Fij), methodcc=6  factor=1.0
 
  CCSD correlation energy              -0.858509262802
  MP2-F12 correction (uncoupled)       -0.092482619507
  C*T doubles correction               -0.001476389881
  f12b correction                       0.015406950093


 Total CPU time for triples:     65.76 sec


 RESULTS
 =======

  Reference energy                   -263.769395937710
  F12 singles correction               -0.015922207260

 F12 singles corrections added to reference energy

  New reference energy               -263.785318144971

  F12a singlet correction              -0.080421981883
  F12a triplet correction              -0.013537027505
  F12a total correction                -0.093959009388

 F12a corrections for ansatz F12/3C(FIX) added to CCSD energy
 
  CCSD-F12a singlet pair energy        -0.641954340026
  CCSD-F12a triplet pair energy        -0.310513936041
  CCSD-F12a correlation energy         -0.952468272190

  Triples (T) contribution             -0.037650921634
  Total correlation energy             -0.990119193825

  CCSD-F12a total energy             -264.737786417161
  CCSD[T]-F12a energy                -264.777982738803
  CCSD-T-F12a energy                 -264.774499000658
 !CCSD(T)-F12a total energy          -264.775437338795

 F12b corrections for ansatz F12/3C(FIX) added to CCSD(T)-F12a energy

  CCSD-F12b singlet pair energy        -0.627770605067
  CCSD-F12b triplet pair energy        -0.309290720907
  CCSD-F12b correlation energy         -0.937061322097

  Triples (T) contribution             -0.037650921634
  Total correlation energy             -0.974712243731

  CCSD-F12b total energy             -264.722379467068
  CCSD[T]-F12b energy                -264.762575788710
  CCSD-T-F12b energy                 -264.759092050565
 !CCSD(T)-F12b total energy          -264.760030388702

 Timing summary (sec):

 STEP                 CPU(USER)    SYS     CPU(TOT)    WALL
 Transformation          3.45      0.49      3.94      3.93
 CCSD iterations        20.14      1.37     21.51     21.49
 Triples                65.76      1.45     67.21     70.26
 MP2-F12                 7.49      1.12      8.61      8.62
 F12b energy             1.35      0.02      1.37      1.38

 Program statistics:

 Available memory in ccsd:                99998934
 Min. memory needed in ccsd:               4419579
 Max. memory used in ccsd:                 5922321
 Max. memory used in cckext:               6231049 (10 integral passes)



 **********************************************************************************************************************************
 DATASETS  * FILE   NREC   LENGTH (MB)   RECORD NAMES
              1      20      268.24       500      610      700      900      950      970     1000      129      960     1100   
                                          VAR    BASINP    GEOM    SYMINP    ZMAT    AOBASIS   BASIS     P2S    ABASIS      S 
                                         1400     1410     1200     1210     1080     1600     1650     1700      960(1)  1380   
                                           T        V       H0       H01     AOSYM     SMH    MOLCAS    OPER    ABASIS    JKOP   

              2       5        1.51       700     1000     2100     7360     7350   
                                         GEOM     BASIS     RHF    F12ABS    EF12   

 PROGRAMS   *        TOTAL   CCSD(T)        HF       INT
 CPU TIMES  *       104.16     98.35      2.56      3.16
 REAL TIME  *       112.65 SEC
 DISK USED  *         1.31 GB      
 SF USED    *         1.52 GB      
 GA USED    *         2.40 MB       (max)       0.00 MB       (current)
 **********************************************************************************************************************************

     CCSD(T)-F12        HF-SCF  
   -264.76003039   -263.76939594
 **********************************************************************************************************************************
 Variable memory released
