
 Primary working directories    : /scratch/kee
 Secondary working directories  : /scratch/kee
 Wavefunction directory         : /home/kee/wfu/
 Main file repository           : /scratch/kee/

 ARCHNAME  : Linux/x86_64
 FC        : /opt/intel/composer_xe_2015.0.090/bin/intel64/ifort
 FCVERSION : 15.0.0
 BLASLIB   : -L/opt/intel/mkl/lib/intel64 -lmkl_intel_ilp64 -lmkl_sequential -lmkl_core
 id        : emory

 Nodes     nprocs
 node24       3
 Number of processes for MPI-2 version of Molpro:   nprocs(total)=    4   nprocs(compute)=    3   nprocs(helper)=    1
 ga_uses_ma=false, calling ma_init with nominal heap.
 GA-space will be limited to   8.0 MW (determined by -G option)

 Using customized tuning parameters: mindgm=7; mindgv=32; mindgc=1; mindgr=1; noblas=0; mincuda=1000; minvec=7
 default implementation of scratch files=sf  

 ***,co2h2o
 memory,100,m
 basis avtz
 geomtype = xyz
 geometry = {
 6
       0.00000000
 O     0.02747900    1.16001200    0.00000000
 O    -0.00936500   -1.16396300    0.00000000
 O    12.62526733   -0.05298673    0.00000000
 H    13.01436233    0.38828727    0.75746400
 H    13.01436233    0.38828727   -0.75746400
 C     0.02536600   -0.00312200    0.00000000
 }
 hf
 ccsd(t)-f12
 ---

 Variables initialized (665), CPU time= 0.00 sec
 Commands  initialized (462), CPU time= 0.01 sec, 486 directives.
 Default parameters read. Elapsed time= 0.03 sec

 Checking input...
 Passed
1


                                         ***  PROGRAM SYSTEM MOLPRO  ***
                         Copyright, University College Cardiff Consultants Limited, 2008

                                    Version 2010.1 linked 9 Dec 2014 15:06:28 


 **********************************************************************************************************************************
 LABEL *   co2h2o                                                                        
 Linux-2.6.32-504.el6.x86_64/node24(x86_64) 64 bit mpp version                           DATE: 14-Dec-16          TIME: 23:42:08  
 **********************************************************************************************************************************

 Patch level:      19
 **********************************************************************************************************************************

 Variable memory set to  100000000 words,  buffer space   230000 words

 SETTING BASIS          =    AVTZ
 SETTING GEOMTYPE       =    XYZ

Geometry recognized as XYZ



 Recomputing integrals since basis changed


 Using spherical harmonics

 Library entry O      S aug-cc-pVTZ          selected for orbital group  1
 Library entry O      P aug-cc-pVTZ          selected for orbital group  1
 Library entry O      D aug-cc-pVTZ          selected for orbital group  1
 Library entry O      F aug-cc-pVTZ          selected for orbital group  1
 Library entry H      S aug-cc-pVTZ          selected for orbital group  2
 Library entry H      P aug-cc-pVTZ          selected for orbital group  2
 Library entry H      D aug-cc-pVTZ          selected for orbital group  2
 Library entry C      S aug-cc-pVTZ          selected for orbital group  3
 Library entry C      P aug-cc-pVTZ          selected for orbital group  3
 Library entry C      D aug-cc-pVTZ          selected for orbital group  3
 Library entry C      F aug-cc-pVTZ          selected for orbital group  3

1PROGRAM * SEWARD (Integral evaluation for generally contracted gaussian basis sets)     Author: Roland Lindh, 1990

 Geometry written to block  1 of record 700


 Point group  Cs  



 ATOMIC COORDINATES

 NR  ATOM    CHARGE       X              Y              Z

   1  O       8.00    0.051927784    2.192104989    0.000000000
   2  O       8.00   -0.017697285   -2.199571297    0.000000000
   3  O       8.00   23.858297590   -0.100130408    0.000000000
   4  H       1.00   24.593580579    0.733756601    1.431399514
   5  H       1.00   24.593580579    0.733756601   -1.431399514
   6  C       6.00    0.047934793   -0.005899725    0.000000000

 Bond lengths in Bohr (Angstrom)

 1-6  2.198008341  2-6  2.194653170  3-4  1.812432947  3-5  1.812432947
     (1.163135919)     (1.161360439)     (0.959098208)     (0.959098208)

 Bond angles

  1-6-2  178.39037465   4-3-5  104.32746287

 NUCLEAR CHARGE:                   32
 NUMBER OF PRIMITIVE AOS:         322
 NUMBER OF SYMMETRY AOS:          282
 NUMBER OF CONTRACTIONS:          230   ( 143A'  +  87A"  )
 NUMBER OF CORE ORBITALS:           4   (   4A'  +   0A"  )
 NUMBER OF VALENCE ORBITALS:       18   (  13A'  +   5A"  )


 NUCLEAR REPULSION ENERGY   76.60181475


 Eigenvalues of metric

         1 0.349E-03 0.386E-03 0.420E-03 0.903E-03 0.922E-03 0.175E-02 0.186E-02 0.317E-02
         2 0.395E-03 0.167E-02 0.318E-02 0.348E-02 0.509E-02 0.622E-02 0.100E-01 0.125E-01


 Contracted 2-electron integrals neglected if value below      1.0D-11
 AO integral compression algorithm  1   Integral accuracy      1.0D-11

     247.202 MB (compressed) written to integral file ( 32.3%)

     Node minimum: 74.449 MB, node maximum: 94.634 MB


 NUMBER OF SORTED TWO-ELECTRON INTEGRALS:   59530350.     BUFFER LENGTH:  32768
 NUMBER OF SEGMENTS:   4  SEGMENT LENGTH:   15999984      RECORD LENGTH: 524288

 Memory used in sort:      16.56 MW

 SORT1 READ    95727089. AND WROTE    16301433. INTEGRALS IN     50 RECORDS. CPU TIME:     1.12 SEC, REAL TIME:     1.29 SEC
 SORT2 READ    48959361. AND WROTE   178576926. INTEGRALS IN   1083 RECORDS. CPU TIME:     0.53 SEC, REAL TIME:     0.71 SEC

 Node minimum:    59520934.  Node maximum:    59530350. integrals

 OPERATOR DM      FOR CENTER  0  COORDINATES:    0.000000    0.000000    0.000000


 **********************************************************************************************************************************
 DATASETS  * FILE   NREC   LENGTH (MB)   RECORD NAMES
              1      18        3.71       500      610      700      900      950      970     1000      129      960     1100   
                                          VAR    BASINP    GEOM    SYMINP    ZMAT    AOBASIS   BASIS     P2S    ABASIS      S 
                                         1400     1410     1200     1210     1080     1600     1650     1700   
                                           T        V       H0       H01     AOSYM     SMH    MOLCAS    OPER   

 PROGRAMS   *        TOTAL       INT
 CPU TIMES  *         3.26      3.20
 REAL TIME  *         3.70 SEC
 DISK USED  *       851.35 MB      
 GA USED    *         0.00 MB       (max)       0.00 MB       (current)
 **********************************************************************************************************************************

1PROGRAM * RHF-SCF (CLOSED SHELL)       Authors: W. Meyer, H.-J. Werner


 NUMBER OF ELECTRONS:      16+   16-
 CONVERGENCE THRESHOLDS:    1.00E-05 (Density)    1.00E-07 (Energy)
 MAX. NUMBER OF ITERATIONS:       60
 INTERPOLATION TYPE:            DIIS
 INTERPOLATION STEPS:              2 (START)      1 (STEP)
 LEVEL SHIFTS:                  0.00 (CLOSED)  0.00 (OPEN) 



 Orbital guess generated from atomic densities. Full valence occupancy:   17   5

 Molecular orbital dump at record        2100.2

 Initial alpha occupancy:  13   3
 Initial beta  occupancy:  13   3
 Wave function symmetry:    1

 ITERATION    DDIFF          GRAD             ENERGY        2-EL.EN.            DIPOLE MOMENTS         DIIS
    1      0.000D+00      0.000D+00      -263.66005686    348.668630    0.79962    0.84407    0.00000    0
    2      0.000D+00      0.643D-02      -263.72540407    344.125557    0.45424    0.49950    0.00000    1
    3      0.103D-01      0.437D-02      -263.76883572    346.683382    0.54198    0.58018    0.00000    2
    4      0.424D-02      0.410D-03      -263.76933113    346.469679    0.54404    0.58434    0.00000    3
    5      0.493D-03      0.119D-03      -263.76938921    346.473004    0.54038    0.57966    0.00000    4
    6      0.185D-03      0.482D-04      -263.76939639    346.487236    0.54081    0.58056    0.00000    5
    7      0.614D-04      0.119D-04      -263.76939712    346.478950    0.54051    0.58007    0.00000    6
    8      0.201D-04      0.263D-05      -263.76939717    346.480231    0.54052    0.58018    0.00000    7
    9      0.547D-05      0.101D-05      -263.76939717    346.480063    0.54050    0.58006    0.00000    0

 Final occupancy:  13   3

 !RHF STATE 1.1 Energy               -263.769397172198
 Nuclear energy                        76.60181475
 One-electron energy                 -513.61124330
 Two-electron energy                  173.24003138
 Virial quotient                       -1.00183206
 !RHF STATE 1.1 Dipole moment           0.54049955     0.58005509     0.00000000
 Dipole moment /Debye                   1.37372284     1.47425641     0.00000000

 Orbital energies:

         1.1          2.1          3.1          4.1          5.1          6.1          7.1          8.1          9.1         10.1
    -20.652786   -20.652248   -20.567782   -11.461316    -1.530143    -1.477032    -1.352954    -0.800396    -0.742619    -0.714195

        11.1         12.1         13.1         14.1         15.1
     -0.585138    -0.543836    -0.510440     0.029248     0.048273

         1.2          2.2          3.2          4.2          5.2
     -0.716643    -0.714207    -0.543856     0.047542     0.073781


 **********************************************************************************************************************************
 DATASETS  * FILE   NREC   LENGTH (MB)   RECORD NAMES
              1      18        3.72       500      610      700      900      950      970     1000      129      960     1100   
                                          VAR    BASINP    GEOM    SYMINP    ZMAT    AOBASIS   BASIS     P2S    ABASIS      S 
                                         1400     1410     1200     1210     1080     1600     1650     1700   
                                           T        V       H0       H01     AOSYM     SMH    MOLCAS    OPER   

              2       3        0.94       700     1000     2100   
                                         GEOM     BASIS     RHF  

 PROGRAMS   *        TOTAL        HF       INT
 CPU TIMES  *         5.84      2.58      3.20
 REAL TIME  *         6.41 SEC
 DISK USED  *       875.18 MB      
 SF USED    *         0.11 MB      
 GA USED    *         0.00 MB       (max)       0.00 MB       (current)
 **********************************************************************************************************************************


1PROGRAM * CCSD (Closed-shell coupled cluster)     Authors: C. Hampel, H.-J. Werner, 1991, M. Deegan, P.J. Knowles, 1992

                                  CCSD-F12 implementation by  H.-J. Werner, 2007

                   Density fitting integral evaluation by F.R. Manby, 2003,2007, G. Knizia, 2010

 Basis set CC-PVTZ/JKFIT generated.      Number of basis functions:   376 
 Basis set AUG-CC-PVTZ/MP2FIT generated. Number of basis functions:   516 

 Convergence thresholds:  THRVAR = 1.00D-08  THRDEN = 1.00D-06

 CCSD(T)     terms to be evaluated (factor= 1.000)


 Number of core orbitals:           4 (   4   0 )
 Number of closed-shell orbitals:  12 (   9   3 )
 Number of external orbitals:     214 ( 130  84 )

 Molecular orbitals read from record     2100.2  Type=RHF/CANONICAL (state 1.1)

 MP2-F12 correlation treatment (H.-J. Werner, 2006)
 --------------------------------------------------

 Using MP2-F12 with ansatz 3C(FIX)

 Using projected zeroth-order Hamiltonian (+Z)

 FOCKRIB=T FOCKRIC=T FOCKRIP=T CABSP=T CABSA=T CABSK=T CABSF=T GBC=F EBC=F DMAT=T NOFIK=T NOPAO=1 SOLVE=-1  USEPAO=0
 EXCH_A= T EXCH_B= F EXCH_C= F EXCH_P= F
 
 Geminal basis:    OPTFULL  GEM_TYPE=SLATER  BETA=1.0  NGEM=6

 Optimizing Gaussian exponents for each gem_beta

 Geminal optimization for beta= 1.0000
 Weight function:   m=0, omega= 1.4646

 Augmented Hessian optimization of geminal fit. Trust ratio= 0.40000
 Convergence reached after   2 iterations. Final gradient= 8.24D-16, Step= 4.32D-06, Delta= 1.28D-09
 
 Alpha:                 0.19532     0.81920     2.85917     9.50073    35.69989   197.79328
 Coeff:                 0.27070     0.30552     0.18297     0.10986     0.06810     0.04224
 

 Symmetry turned off. Reference energy:       -263.769397172199

 All pairs explicitly correlated. Number of r12-pairs:           78
 
 AO(A)-basis ORBITAL           loaded. Number of functions:     230
 RI(R)-basis CC-PVTZ/JKFIT     loaded. Number of functions:     376
 DF-basis CC-PVTZ/JKFIT        loaded. Number of functions:     376

 Screening thresholds:   THRAO=  1.00D-10  THRMO=  1.00D-09  THRPROD=  1.00D-09
                         THRSW=  1.00D-05  THROV=  1.00D-12  THRF12=   1.00D-08

 CPU time for Fock operators                      0.87 sec
 
 Construction of ABS:
 Smallest eigenvalue of S          2.57E-04  (threshold= 1.00E-08)
 Ratio eigmin/eigmax               1.83E-06  (threshold= 1.00E-09)
 Smallest eigenvalue of S kept     2.57E-04  (threshold= 2.57E-04, 0 functions deleted, 376 kept)
 
 Construction of CABS:
 Smallest eigenvalue of S          2.30E-08  (threshold= 1.00E-08)
 Ratio eigmin/eigmax               2.30E-08  (threshold= 1.00E-09)
 Smallest eigenvalue of S kept     2.30E-08  (threshold= 2.30E-08, 0 functions deleted, 376 kept)
 
 CPU time for CABS singles                        0.16 sec

 CABS-singles contribution of  -0.01592219 patched into reference energy.
 New reference energy        -263.78531937
 
 AO(A)-basis ORBITAL           loaded. Number of functions:     230
 RI(R)-basis CC-PVTZ/JKFIT     loaded. Number of functions:     376
 DF-basis AUG-CC-PVTZ/MP2FIT   loaded. Number of functions:     516

 Screening thresholds:   THRAO=  1.00D-10  THRMO=  1.00D-09  THRPROD=  1.00D-09
                         THRSW=  1.00D-05  THROV=  1.00D-12  THRF12=   1.00D-08

 CPU time for 3-index integral evaluation         1.48 sec
 CPU time for first  half transformation          0.20 sec ( 7280.8 MFLOP/sec)
 CPU time for second half transformation          0.04 sec ( 1627.2 MFLOP/sec)
 CPU time for sorting                             0.10 sec
 CPU time for fitting                             0.05 sec (27861.0 MFLOP/sec)
 CPU time for tilde quantities                    0.07 sec (26412.6 MFLOP/sec)
 CPU time for assembly                            0.81 sec (28896.8 MFLOP/sec)
 CPU time for tranop_f12                          0.86 sec (34551.5 MFLOP/sec)
 CPU time for f12 integrals (total)               5.66 sec
 F12-matrices built in  3 passes.
 F12-matrices built in  3 passes.
 F12-matrices built in  3 passes.
 F12-matrices built in  3 passes.
 FC-matrix built in  3 passes.
 CPU time for f12 matrices (total)                0.48 sec

 Diagonal F12 approximation with fixed coefficients:  TSING= 0.500,  TTRIP= 0.250 (scaled by -1/beta)

 DF-MP2-F12 energy corrections:
 ------------------------------
 Approx.                                    Singlet             Triplet             Total
 DF-MP2-F12/3*C(DX,FIX)                -0.097445636663     -0.016932792695     -0.114378429357
 DF-MP2-F12/3*C(FIX)                   -0.079860858327     -0.013395140987     -0.093255999314
 DF-MP2-F12/3C(FIX)                    -0.080222331566     -0.013418592742     -0.093640924308

 DF-MP2-F12 correlation energies:
 --------------------------------
 Approx.                                    Singlet             Triplet             Ecorr            Total Energy
 DF-MP2                                -0.537789009958     -0.343110380108     -0.880899390067   -264.666218757010
 DF-MP2-F12/3*C(DX,FIX)                -0.635234646621     -0.360043172803     -0.995277819424   -264.780597186367
 DF-MP2-F12/3*C(FIX)                   -0.617649868285     -0.356505521096     -0.974155389381   -264.759474756324
 DF-MP2-F12/3C(FIX)                    -0.618011341524     -0.356528972850     -0.974540314375   -264.759859681318

 SCS-DF-MP2 energies (F_SING= 1.20000  F_TRIP= 0.62222  F_PARALLEL= 0.33333):
 ----------------------------------------------------------------------------
 SCS-DF-MP2                            -0.858837715129   -264.644157082072
 SCS-DF-MP2-F12/3*C(DX,FIX)            -0.986308439023   -264.771627805966
 SCS-DF-MP2-F12/3*C(FIX)               -0.963005499513   -264.748324866457
 SCS-DF-MP2-F12/3C(FIX)                -0.963453859603   -264.748773226546

 Symmetry restored.
 Symmetry transformation completed.

 Number of N-1 electron functions:              12
 Number of N-2 electron functions:              78
 Number of singly external CSFs:              1422
 Number of doubly external CSFs:           1668984
 Total number of CSFs:                     1670407

 Pair and operator lists are different

 Length of J-op  integral file:             466.33 MB
 Length of K-op  integral file:             525.76 MB
 Length of 3-ext integral record:             0.00 MB

 Memory could be reduced to 76.19 Mwords without degradation in triples

 Integral transformation finished. Total CPU:   3.60 sec, npass=  1  Memory used:  26.50 MW

 Reference energy:                   -263.78531937

 Adding F12 terms to K(Cij), methodcc=6,  factor=1.0

 ITER.      SQ.NORM     CORR.ENERGY   TOTAL ENERGY   ENERGY CHANGE        DEN1      VAR(S)    VAR(P)  DIIS     TIME
   1      1.20220520    -0.86283759  -264.64815696     0.01807821     0.04672740  0.72D-02  0.56D-02  1  1    13.43
   2      1.21652716    -0.85860811  -264.64392747     0.00422949    -0.02016333  0.86D-04  0.59D-03  2  2    15.75
   3      1.22189312    -0.85870445  -264.64402382    -0.00009634    -0.00236639  0.13D-03  0.32D-04  3  3    18.04
   4      1.22469747    -0.85857648  -264.64389584     0.00012797    -0.00141238  0.76D-05  0.41D-05  4  4    20.31
   5      1.22572831    -0.85853878  -264.64385815     0.00003769    -0.00036668  0.56D-06  0.29D-06  5  5    22.62
   6      1.22589057    -0.85851192  -264.64383129     0.00002686    -0.00000806  0.40D-07  0.24D-07  6  6    24.94
   7      1.22591995    -0.85850949  -264.64382886     0.00000243    -0.00000622  0.26D-08  0.40D-08  6  4    27.25
   8      1.22592026    -0.85850900  -264.64382837     0.00000049     0.00000194  0.39D-09  0.27D-09  6  1    29.59
   9      1.22592087    -0.85850907  -264.64382843    -0.00000007     0.00000056  0.26D-10  0.21D-10  6  2    31.88

 Norm of t1 vector:      0.10599801      S-energy:     0.00000000      T1 diagnostic:  0.01529950
                                                                       D1 diagnostic:  0.04495018

 Adding energy correction from Wij-K(Fij), methodcc=6  factor=1.0
 
  CCSD correlation energy              -0.858509066070
  MP2-F12 correction (uncoupled)       -0.092482631721
  C*T doubles correction               -0.001476388946
  f12b correction                       0.015406950677


 Total CPU time for triples:     68.05 sec


 RESULTS
 =======

  Reference energy                   -263.769397172198
  F12 singles correction               -0.015922194745

 F12 singles corrections added to reference energy

  New reference energy               -263.785319366943

  F12a singlet correction              -0.080421993213
  F12a triplet correction              -0.013537027453
  F12a total correction                -0.093959020666

 F12a corrections for ansatz F12/3C(FIX) added to CCSD energy
 
  CCSD-F12a singlet pair energy        -0.641954196351
  CCSD-F12a triplet pair energy        -0.310513892651
  CCSD-F12a correlation energy         -0.952468086736

  Triples (T) contribution             -0.037650885108
  Total correlation energy             -0.990118971844

  CCSD-F12a total energy             -264.737787453679
  CCSD[T]-F12a energy                -264.777983731671
  CCSD-T-F12a energy                 -264.774500003972
 !CCSD(T)-F12a total energy          -264.775438338787

 F12b corrections for ansatz F12/3C(FIX) added to CCSD(T)-F12a energy

  CCSD-F12b singlet pair energy        -0.627770461006
  CCSD-F12b triplet pair energy        -0.309290677319
  CCSD-F12b correlation energy         -0.937061136059

  Triples (T) contribution             -0.037650885108
  Total correlation energy             -0.974712021167

  CCSD-F12b total energy             -264.722380503002
  CCSD[T]-F12b energy                -264.762576780994
  CCSD-T-F12b energy                 -264.759093053295
 !CCSD(T)-F12b total energy          -264.760031388110

 Timing summary (sec):

 STEP                 CPU(USER)    SYS     CPU(TOT)    WALL
 Transformation          3.63      0.50      4.13      4.13
 CCSD iterations        20.62      1.38     22.00     22.87
 Triples                68.05      1.49     69.54     69.51
 MP2-F12                 7.63      1.03      8.66      8.70
 F12b energy             1.38      0.02      1.40      1.40

 Program statistics:

 Available memory in ccsd:                99998934
 Min. memory needed in ccsd:               4419579
 Max. memory used in ccsd:                 5922321
 Max. memory used in cckext:               6231049 (10 integral passes)



 **********************************************************************************************************************************
 DATASETS  * FILE   NREC   LENGTH (MB)   RECORD NAMES
              1      20      268.24       500      610      700      900      950      970     1000      129      960     1100   
                                          VAR    BASINP    GEOM    SYMINP    ZMAT    AOBASIS   BASIS     P2S    ABASIS      S 
                                         1400     1410     1200     1210     1080     1600     1650     1700      960(1)  1380   
                                           T        V       H0       H01     AOSYM     SMH    MOLCAS    OPER    ABASIS    JKOP   

              2       5        1.51       700     1000     2100     7360     7350   
                                         GEOM     BASIS     RHF    F12ABS    EF12   

 PROGRAMS   *        TOTAL   CCSD(T)        HF       INT
 CPU TIMES  *       107.18    101.34      2.58      3.20
 REAL TIME  *       113.30 SEC
 DISK USED  *         1.31 GB      
 SF USED    *         1.52 GB      
 GA USED    *         2.40 MB       (max)       0.00 MB       (current)
 **********************************************************************************************************************************

     CCSD(T)-F12        HF-SCF  
   -264.76003139   -263.76939717
 **********************************************************************************************************************************
 Variable memory released
