
 Primary working directories    : /scratch/kee
 Secondary working directories  : /scratch/kee
 Wavefunction directory         : /home/kee/wfu/
 Main file repository           : /scratch/kee/

 ARCHNAME  : Linux/x86_64
 FC        : /opt/intel/composer_xe_2015.0.090/bin/intel64/ifort
 FCVERSION : 15.0.0
 BLASLIB   : -L/opt/intel/mkl/lib/intel64 -lmkl_intel_ilp64 -lmkl_sequential -lmkl_core
 id        : emory

 Nodes     nprocs
 node24       3
 Number of processes for MPI-2 version of Molpro:   nprocs(total)=    4   nprocs(compute)=    3   nprocs(helper)=    1
 ga_uses_ma=false, calling ma_init with nominal heap.
 GA-space will be limited to   8.0 MW (determined by -G option)

 Using customized tuning parameters: mindgm=7; mindgv=32; mindgc=1; mindgr=1; noblas=0; mincuda=1000; minvec=7
 default implementation of scratch files=sf  

 ***,co2h2o
 memory,100,m
 basis avtz
 geomtype = xyz
 geometry = {
 6
       0.00000000
 O     0.02747900    1.16001200    0.00000000
 O    -0.00936500   -1.16396300    0.00000000
 O    12.82526576   -0.05377823    0.00000000
 H    13.21436076    0.38749577    0.75746400
 H    13.21436076    0.38749577   -0.75746400
 C     0.02536600   -0.00312200    0.00000000
 }
 hf
 ccsd(t)-f12
 ---

 Variables initialized (665), CPU time= 0.00 sec
 Commands  initialized (462), CPU time= 0.01 sec, 486 directives.
 Default parameters read. Elapsed time= 0.04 sec

 Checking input...
 Passed
1


                                         ***  PROGRAM SYSTEM MOLPRO  ***
                         Copyright, University College Cardiff Consultants Limited, 2008

                                    Version 2010.1 linked 9 Dec 2014 15:06:28 


 **********************************************************************************************************************************
 LABEL *   co2h2o                                                                        
 Linux-2.6.32-504.el6.x86_64/node24(x86_64) 64 bit mpp version                           DATE: 14-Dec-16          TIME: 23:50:04  
 **********************************************************************************************************************************

 Patch level:      19
 **********************************************************************************************************************************

 Variable memory set to  100000000 words,  buffer space   230000 words

 SETTING BASIS          =    AVTZ
 SETTING GEOMTYPE       =    XYZ

Geometry recognized as XYZ



 Recomputing integrals since basis changed


 Using spherical harmonics

 Library entry O      S aug-cc-pVTZ          selected for orbital group  1
 Library entry O      P aug-cc-pVTZ          selected for orbital group  1
 Library entry O      D aug-cc-pVTZ          selected for orbital group  1
 Library entry O      F aug-cc-pVTZ          selected for orbital group  1
 Library entry H      S aug-cc-pVTZ          selected for orbital group  2
 Library entry H      P aug-cc-pVTZ          selected for orbital group  2
 Library entry H      D aug-cc-pVTZ          selected for orbital group  2
 Library entry C      S aug-cc-pVTZ          selected for orbital group  3
 Library entry C      P aug-cc-pVTZ          selected for orbital group  3
 Library entry C      D aug-cc-pVTZ          selected for orbital group  3
 Library entry C      F aug-cc-pVTZ          selected for orbital group  3

1PROGRAM * SEWARD (Integral evaluation for generally contracted gaussian basis sets)     Author: Roland Lindh, 1990

 Geometry written to block  1 of record 700


 Point group  Cs  



 ATOMIC COORDINATES

 NR  ATOM    CHARGE       X              Y              Z

   1  O       8.00    0.051927784    2.192104989    0.000000000
   2  O       8.00   -0.017697285   -2.199571297    0.000000000
   3  O       8.00   24.236239849   -0.101626127    0.000000000
   4  H       1.00   24.971522838    0.732260882    1.431399514
   5  H       1.00   24.971522838    0.732260882   -1.431399514
   6  C       6.00    0.047934793   -0.005899725    0.000000000

 Bond lengths in Bohr (Angstrom)

 1-6  2.198008341  2-6  2.194653170  3-4  1.812432947  3-5  1.812432947
     (1.163135919)     (1.161360439)     (0.959098208)     (0.959098208)

 Bond angles

  1-6-2  178.39037465   4-3-5  104.32746287

 NUCLEAR CHARGE:                   32
 NUMBER OF PRIMITIVE AOS:         322
 NUMBER OF SYMMETRY AOS:          282
 NUMBER OF CONTRACTIONS:          230   ( 143A'  +  87A"  )
 NUMBER OF CORE ORBITALS:           4   (   4A'  +   0A"  )
 NUMBER OF VALENCE ORBITALS:       18   (  13A'  +   5A"  )


 NUCLEAR REPULSION ENERGY   76.46084035


 Eigenvalues of metric

         1 0.349E-03 0.386E-03 0.420E-03 0.903E-03 0.922E-03 0.175E-02 0.186E-02 0.317E-02
         2 0.395E-03 0.167E-02 0.318E-02 0.348E-02 0.509E-02 0.622E-02 0.100E-01 0.125E-01


 Contracted 2-electron integrals neglected if value below      1.0D-11
 AO integral compression algorithm  1   Integral accuracy      1.0D-11

     245.891 MB (compressed) written to integral file ( 33.0%)

     Node minimum: 76.022 MB, node maximum: 91.226 MB


 NUMBER OF SORTED TWO-ELECTRON INTEGRALS:   59530350.     BUFFER LENGTH:  32768
 NUMBER OF SEGMENTS:   4  SEGMENT LENGTH:   15999984      RECORD LENGTH: 524288

 Memory used in sort:      16.56 MW

 SORT1 READ    93135313. AND WROTE    16240045. INTEGRALS IN     50 RECORDS. CPU TIME:     1.08 SEC, REAL TIME:     1.25 SEC
 SORT2 READ    48762049. AND WROTE   178576926. INTEGRALS IN   1044 RECORDS. CPU TIME:     0.53 SEC, REAL TIME:     0.70 SEC

 Node minimum:    59520934.  Node maximum:    59530350. integrals

 OPERATOR DM      FOR CENTER  0  COORDINATES:    0.000000    0.000000    0.000000


 **********************************************************************************************************************************
 DATASETS  * FILE   NREC   LENGTH (MB)   RECORD NAMES
              1      18        3.71       500      610      700      900      950      970     1000      129      960     1100   
                                          VAR    BASINP    GEOM    SYMINP    ZMAT    AOBASIS   BASIS     P2S    ABASIS      S 
                                         1400     1410     1200     1210     1080     1600     1650     1700   
                                           T        V       H0       H01     AOSYM     SMH    MOLCAS    OPER   

 PROGRAMS   *        TOTAL       INT
 CPU TIMES  *         3.22      3.15
 REAL TIME  *         3.67 SEC
 DISK USED  *       847.76 MB      
 GA USED    *         0.00 MB       (max)       0.00 MB       (current)
 **********************************************************************************************************************************

1PROGRAM * RHF-SCF (CLOSED SHELL)       Authors: W. Meyer, H.-J. Werner


 NUMBER OF ELECTRONS:      16+   16-
 CONVERGENCE THRESHOLDS:    1.00E-05 (Density)    1.00E-07 (Energy)
 MAX. NUMBER OF ITERATIONS:       60
 INTERPOLATION TYPE:            DIIS
 INTERPOLATION STEPS:              2 (START)      1 (STEP)
 LEVEL SHIFTS:                  0.00 (CLOSED)  0.00 (OPEN) 



 Orbital guess generated from atomic densities. Full valence occupancy:   17   5

 Molecular orbital dump at record        2100.2

 Initial alpha occupancy:  13   3
 Initial beta  occupancy:  13   3
 Wave function symmetry:    1

 ITERATION    DDIFF          GRAD             ENERGY        2-EL.EN.            DIPOLE MOMENTS         DIIS
    1      0.000D+00      0.000D+00      -263.66005506    348.385053    0.79962    0.84407    0.00000    0
    2      0.000D+00      0.643D-02      -263.72540259    343.842506    0.45416    0.49956    0.00000    1
    3      0.103D-01      0.437D-02      -263.76883500    346.400247    0.54192    0.58021    0.00000    2
    4      0.424D-02      0.410D-03      -263.76933040    346.186531    0.54398    0.58438    0.00000    3
    5      0.493D-03      0.119D-03      -263.76938849    346.189867    0.54033    0.57970    0.00000    4
    6      0.185D-03      0.482D-04      -263.76939566    346.204097    0.54076    0.58060    0.00000    5
    7      0.614D-04      0.119D-04      -263.76939640    346.195812    0.54046    0.58010    0.00000    6
    8      0.201D-04      0.263D-05      -263.76939644    346.197092    0.54046    0.58022    0.00000    7
    9      0.547D-05      0.101D-05      -263.76939645    346.196924    0.54044    0.58009    0.00000    0

 Final occupancy:  13   3

 !RHF STATE 1.1 Energy               -263.769396446228
 Nuclear energy                        76.46084035
 One-electron energy                 -513.32869897
 Two-electron energy                  173.09846217
 Virial quotient                       -1.00183205
 !RHF STATE 1.1 Dipole moment           0.54044418     0.58009054     0.00000000
 Dipole moment /Debye                   1.37358212     1.47434650     0.00000000

 Orbital energies:

         1.1          2.1          3.1          4.1          5.1          6.1          7.1          8.1          9.1         10.1
    -20.652818   -20.652277   -20.567775   -11.461347    -1.530173    -1.477062    -1.352947    -0.800427    -0.742649    -0.714226

        11.1         12.1         13.1         14.1         15.1
     -0.585131    -0.543866    -0.510432     0.029255     0.048241

         1.2          2.2          3.2          4.2          5.2
     -0.716635    -0.714237    -0.543886     0.047548     0.073753


 **********************************************************************************************************************************
 DATASETS  * FILE   NREC   LENGTH (MB)   RECORD NAMES
              1      18        3.72       500      610      700      900      950      970     1000      129      960     1100   
                                          VAR    BASINP    GEOM    SYMINP    ZMAT    AOBASIS   BASIS     P2S    ABASIS      S 
                                         1400     1410     1200     1210     1080     1600     1650     1700   
                                           T        V       H0       H01     AOSYM     SMH    MOLCAS    OPER   

              2       3        0.94       700     1000     2100   
                                         GEOM     BASIS     RHF  

 PROGRAMS   *        TOTAL        HF       INT
 CPU TIMES  *         5.75      2.53      3.15
 REAL TIME  *         6.35 SEC
 DISK USED  *       871.59 MB      
 SF USED    *         0.11 MB      
 GA USED    *         0.00 MB       (max)       0.00 MB       (current)
 **********************************************************************************************************************************


1PROGRAM * CCSD (Closed-shell coupled cluster)     Authors: C. Hampel, H.-J. Werner, 1991, M. Deegan, P.J. Knowles, 1992

                                  CCSD-F12 implementation by  H.-J. Werner, 2007

                   Density fitting integral evaluation by F.R. Manby, 2003,2007, G. Knizia, 2010

 Basis set CC-PVTZ/JKFIT generated.      Number of basis functions:   376 
 Basis set AUG-CC-PVTZ/MP2FIT generated. Number of basis functions:   516 

 Convergence thresholds:  THRVAR = 1.00D-08  THRDEN = 1.00D-06

 CCSD(T)     terms to be evaluated (factor= 1.000)


 Number of core orbitals:           4 (   4   0 )
 Number of closed-shell orbitals:  12 (   9   3 )
 Number of external orbitals:     214 ( 130  84 )

 Molecular orbitals read from record     2100.2  Type=RHF/CANONICAL (state 1.1)

 MP2-F12 correlation treatment (H.-J. Werner, 2006)
 --------------------------------------------------

 Using MP2-F12 with ansatz 3C(FIX)

 Using projected zeroth-order Hamiltonian (+Z)

 FOCKRIB=T FOCKRIC=T FOCKRIP=T CABSP=T CABSA=T CABSK=T CABSF=T GBC=F EBC=F DMAT=T NOFIK=T NOPAO=1 SOLVE=-1  USEPAO=0
 EXCH_A= T EXCH_B= F EXCH_C= F EXCH_P= F
 
 Geminal basis:    OPTFULL  GEM_TYPE=SLATER  BETA=1.0  NGEM=6

 Optimizing Gaussian exponents for each gem_beta

 Geminal optimization for beta= 1.0000
 Weight function:   m=0, omega= 1.4646

 Augmented Hessian optimization of geminal fit. Trust ratio= 0.40000
 Convergence reached after   2 iterations. Final gradient= 8.24D-16, Step= 4.32D-06, Delta= 1.28D-09
 
 Alpha:                 0.19532     0.81920     2.85917     9.50073    35.69989   197.79328
 Coeff:                 0.27070     0.30552     0.18297     0.10986     0.06810     0.04224
 

 Symmetry turned off. Reference energy:       -263.769396446228

 All pairs explicitly correlated. Number of r12-pairs:           78
 
 AO(A)-basis ORBITAL           loaded. Number of functions:     230
 RI(R)-basis CC-PVTZ/JKFIT     loaded. Number of functions:     376
 DF-basis CC-PVTZ/JKFIT        loaded. Number of functions:     376

 Screening thresholds:   THRAO=  1.00D-10  THRMO=  1.00D-09  THRPROD=  1.00D-09
                         THRSW=  1.00D-05  THROV=  1.00D-12  THRF12=   1.00D-08

 CPU time for Fock operators                      0.85 sec
 
 Construction of ABS:
 Smallest eigenvalue of S          2.57E-04  (threshold= 1.00E-08)
 Ratio eigmin/eigmax               1.83E-06  (threshold= 1.00E-09)
 Smallest eigenvalue of S kept     2.57E-04  (threshold= 2.57E-04, 0 functions deleted, 376 kept)
 
 Construction of CABS:
 Smallest eigenvalue of S          2.30E-08  (threshold= 1.00E-08)
 Ratio eigmin/eigmax               2.30E-08  (threshold= 1.00E-09)
 Smallest eigenvalue of S kept     2.30E-08  (threshold= 2.30E-08, 0 functions deleted, 376 kept)
 
 CPU time for CABS singles                        0.16 sec

 CABS-singles contribution of  -0.01592220 patched into reference energy.
 New reference energy        -263.78531865
 
 AO(A)-basis ORBITAL           loaded. Number of functions:     230
 RI(R)-basis CC-PVTZ/JKFIT     loaded. Number of functions:     376
 DF-basis AUG-CC-PVTZ/MP2FIT   loaded. Number of functions:     516

 Screening thresholds:   THRAO=  1.00D-10  THRMO=  1.00D-09  THRPROD=  1.00D-09
                         THRSW=  1.00D-05  THROV=  1.00D-12  THRF12=   1.00D-08

 CPU time for 3-index integral evaluation         1.36 sec
 CPU time for first  half transformation          0.22 sec ( 6620.2 MFLOP/sec)
 CPU time for second half transformation          0.04 sec ( 1927.5 MFLOP/sec)
 CPU time for sorting                             0.12 sec
 CPU time for fitting                             0.04 sec (34826.3 MFLOP/sec)
 CPU time for tilde quantities                    0.07 sec (26412.6 MFLOP/sec)
 CPU time for assembly                            0.77 sec (30162.7 MFLOP/sec)
 CPU time for tranop_f12                          0.85 sec (35437.1 MFLOP/sec)
 CPU time for f12 integrals (total)               5.48 sec
 F12-matrices built in  3 passes.
 F12-matrices built in  3 passes.
 F12-matrices built in  3 passes.
 F12-matrices built in  3 passes.
 FC-matrix built in  3 passes.
 CPU time for f12 matrices (total)                0.49 sec

 Diagonal F12 approximation with fixed coefficients:  TSING= 0.500,  TTRIP= 0.250 (scaled by -1/beta)

 DF-MP2-F12 energy corrections:
 ------------------------------
 Approx.                                    Singlet             Triplet             Total
 DF-MP2-F12/3*C(DX,FIX)                -0.097445633010     -0.016932792869     -0.114378425879
 DF-MP2-F12/3*C(FIX)                   -0.079860851803     -0.013395141477     -0.093255993280
 DF-MP2-F12/3C(FIX)                    -0.080222325489     -0.013418593453     -0.093640918941

 DF-MP2-F12 correlation energies:
 --------------------------------
 Approx.                                    Singlet             Triplet             Ecorr            Total Energy
 DF-MP2                                -0.537789107947     -0.343110446699     -0.880899554647   -264.666218202936
 DF-MP2-F12/3*C(DX,FIX)                -0.635234740958     -0.360043239568     -0.995277980526   -264.780596628815
 DF-MP2-F12/3*C(FIX)                   -0.617649959751     -0.356505588176     -0.974155547927   -264.759474196216
 DF-MP2-F12/3C(FIX)                    -0.618011433436     -0.356529040152     -0.974540473588   -264.759859121877

 SCS-DF-MP2 energies (F_SING= 1.20000  F_TRIP= 0.62222  F_PARALLEL= 0.33333):
 ----------------------------------------------------------------------------
 SCS-DF-MP2                            -0.858837874150   -264.644156522439
 SCS-DF-MP2-F12/3*C(DX,FIX)            -0.986308593769   -264.771627242058
 SCS-DF-MP2-F12/3*C(FIX)               -0.963005651011   -264.748324299299
 SCS-DF-MP2-F12/3C(FIX)                -0.963454011773   -264.748772660062

 Symmetry restored.
 Symmetry transformation completed.

 Number of N-1 electron functions:              12
 Number of N-2 electron functions:              78
 Number of singly external CSFs:              1422
 Number of doubly external CSFs:           1668984
 Total number of CSFs:                     1670407

 Pair and operator lists are different

 Length of J-op  integral file:             466.33 MB
 Length of K-op  integral file:             525.76 MB
 Length of 3-ext integral record:             0.00 MB

 Memory could be reduced to 76.19 Mwords without degradation in triples

 Integral transformation finished. Total CPU:   3.40 sec, npass=  1  Memory used:  26.50 MW

 Reference energy:                   -263.78531865

 Adding F12 terms to K(Cij), methodcc=6,  factor=1.0

 ITER.      SQ.NORM     CORR.ENERGY   TOTAL ENERGY   ENERGY CHANGE        DEN1      VAR(S)    VAR(P)  DIIS     TIME
   1      1.20220528    -0.86283773  -264.64815637     0.01807825     0.04672747  0.72D-02  0.56D-02  1  1    12.96
   2      1.21652726    -0.85860823  -264.64392687     0.00422950    -0.02016335  0.86D-04  0.59D-03  2  2    15.20
   3      1.22189322    -0.85870456  -264.64402321    -0.00009634    -0.00236639  0.13D-03  0.32D-04  3  3    17.44
   4      1.22469757    -0.85857659  -264.64389524     0.00012797    -0.00141238  0.76D-05  0.41D-05  4  4    19.69
   5      1.22572841    -0.85853890  -264.64385755     0.00003769    -0.00036668  0.56D-06  0.29D-06  5  5    21.94
   6      1.22589067    -0.85851203  -264.64383068     0.00002686    -0.00000806  0.40D-07  0.24D-07  6  6    24.23
   7      1.22592005    -0.85850961  -264.64382825     0.00000243    -0.00000622  0.26D-08  0.40D-08  6  4    26.55
   8      1.22592037    -0.85850911  -264.64382776     0.00000049     0.00000194  0.39D-09  0.27D-09  6  1    28.69
   9      1.22592097    -0.85850918  -264.64382783    -0.00000007     0.00000056  0.26D-10  0.21D-10  6  2    30.88

 Norm of t1 vector:      0.10599803      S-energy:     0.00000000      T1 diagnostic:  0.01529950
                                                                       D1 diagnostic:  0.04495012

 Adding energy correction from Wij-K(Fij), methodcc=6  factor=1.0
 
  CCSD correlation energy              -0.858509181278
  MP2-F12 correction (uncoupled)       -0.092482626030
  C*T doubles correction               -0.001476389469
  f12b correction                       0.015406950329


 Total CPU time for triples:     67.92 sec


 RESULTS
 =======

  Reference energy                   -263.769396446228
  F12 singles correction               -0.015922202060

 F12 singles corrections added to reference energy

  New reference energy               -263.785318648289

  F12a singlet correction              -0.080421987549
  F12a triplet correction              -0.013537027950
  F12a total correction                -0.093959015499

 F12a corrections for ansatz F12/3C(FIX) added to CCSD energy
 
  CCSD-F12a singlet pair energy        -0.641954281621
  CCSD-F12a triplet pair energy        -0.310513918358
  CCSD-F12a correlation energy         -0.952468196777

  Triples (T) contribution             -0.037650906506
  Total correlation energy             -0.990119103283

  CCSD-F12a total energy             -264.737786845066
  CCSD[T]-F12a energy                -264.777983148640
  CCSD-T-F12a energy                 -264.774499414803
 !CCSD(T)-F12a total energy          -264.775437751572

 F12b corrections for ansatz F12/3C(FIX) added to CCSD(T)-F12a energy

  CCSD-F12b singlet pair energy        -0.627770546508
  CCSD-F12b triplet pair energy        -0.309290703142
  CCSD-F12b correlation energy         -0.937061246448

  Triples (T) contribution             -0.037650906506
  Total correlation energy             -0.974712152954

  CCSD-F12b total energy             -264.722379894736
  CCSD[T]-F12b energy                -264.762576198311
  CCSD-T-F12b energy                 -264.759092464473
 !CCSD(T)-F12b total energy          -264.760030801243

 Timing summary (sec):

 STEP                 CPU(USER)    SYS     CPU(TOT)    WALL
 Transformation          3.43      0.54      3.97      3.97
 CCSD iterations        20.04      1.34     21.38     21.50
 Triples                67.92      1.45     69.37     69.35
 MP2-F12                 7.43      1.15      8.58      8.58
 F12b energy             1.34      0.02      1.36      1.37

 Program statistics:

 Available memory in ccsd:                99998934
 Min. memory needed in ccsd:               4419579
 Max. memory used in ccsd:                 5922321
 Max. memory used in cckext:               6231049 (10 integral passes)



 **********************************************************************************************************************************
 DATASETS  * FILE   NREC   LENGTH (MB)   RECORD NAMES
              1      20      268.24       500      610      700      900      950      970     1000      129      960     1100   
                                          VAR    BASINP    GEOM    SYMINP    ZMAT    AOBASIS   BASIS     P2S    ABASIS      S 
                                         1400     1410     1200     1210     1080     1600     1650     1700      960(1)  1380   
                                           T        V       H0       H01     AOSYM     SMH    MOLCAS    OPER    ABASIS    JKOP   

              2       5        1.51       700     1000     2100     7360     7350   
                                         GEOM     BASIS     RHF    F12ABS    EF12   

 PROGRAMS   *        TOTAL   CCSD(T)        HF       INT
 CPU TIMES  *       105.98    100.23      2.53      3.15
 REAL TIME  *       111.41 SEC
 DISK USED  *         1.31 GB      
 SF USED    *         1.52 GB      
 GA USED    *         2.40 MB       (max)       0.00 MB       (current)
 **********************************************************************************************************************************

     CCSD(T)-F12        HF-SCF  
   -264.76003080   -263.76939645
 **********************************************************************************************************************************
 Variable memory released
