
 Primary working directories    : /scratch/kee
 Secondary working directories  : /scratch/kee
 Wavefunction directory         : /home/kee/wfu/
 Main file repository           : /scratch/kee/

 ARCHNAME  : Linux/x86_64
 FC        : /opt/intel/composer_xe_2015.0.090/bin/intel64/ifort
 FCVERSION : 15.0.0
 BLASLIB   : -L/opt/intel/mkl/lib/intel64 -lmkl_intel_ilp64 -lmkl_sequential -lmkl_core
 id        : emory

 Nodes     nprocs
 node20       3
 Number of processes for MPI-2 version of Molpro:   nprocs(total)=    4   nprocs(compute)=    3   nprocs(helper)=    1
 ga_uses_ma=false, calling ma_init with nominal heap.
 GA-space will be limited to   8.0 MW (determined by -G option)

 Using customized tuning parameters: mindgm=7; mindgv=32; mindgc=1; mindgr=1; noblas=0; mincuda=1000; minvec=7
 default implementation of scratch files=sf  

 ***,co2h2o
 memory,100,m
 basis avtz
 geomtype = xyz
 geometry = {
 6
       0.00000000
 O     0.01288800    1.16233300    0.00000000
 O     0.01288800   -1.16233300    0.00000000
 O     7.40363900    0.00000000    0.00000000
 H     6.82249900    0.76306800    0.00000000
 H     6.82249900   -0.76306800    0.00000000
 C     0.00363900    0.00000000    0.00000000
 }
 hf
 ccsd(t)-f12
 ---

 Variables initialized (665), CPU time= 0.00 sec
 Commands  initialized (462), CPU time= 0.01 sec, 486 directives.
 Default parameters read. Elapsed time= 0.05 sec

 Checking input...
 Passed
1


                                         ***  PROGRAM SYSTEM MOLPRO  ***
                         Copyright, University College Cardiff Consultants Limited, 2008

                                    Version 2010.1 linked 9 Dec 2014 15:06:28 


 **********************************************************************************************************************************
 LABEL *   co2h2o                                                                        
 Linux-2.6.32-504.el6.x86_64/node20(x86_64) 64 bit mpp version                           DATE: 15-Dec-16          TIME: 00:11:45  
 **********************************************************************************************************************************

 Patch level:      19
 **********************************************************************************************************************************

 Variable memory set to  100000000 words,  buffer space   230000 words

 SETTING BASIS          =    AVTZ
 SETTING GEOMTYPE       =    XYZ

Geometry recognized as XYZ



 Recomputing integrals since basis changed


 Using spherical harmonics

 Library entry O      S aug-cc-pVTZ          selected for orbital group  1
 Library entry O      P aug-cc-pVTZ          selected for orbital group  1
 Library entry O      D aug-cc-pVTZ          selected for orbital group  1
 Library entry O      F aug-cc-pVTZ          selected for orbital group  1
 Library entry H      S aug-cc-pVTZ          selected for orbital group  2
 Library entry H      P aug-cc-pVTZ          selected for orbital group  2
 Library entry H      D aug-cc-pVTZ          selected for orbital group  2
 Library entry C      S aug-cc-pVTZ          selected for orbital group  3
 Library entry C      P aug-cc-pVTZ          selected for orbital group  3
 Library entry C      D aug-cc-pVTZ          selected for orbital group  3
 Library entry C      F aug-cc-pVTZ          selected for orbital group  3

1PROGRAM * SEWARD (Integral evaluation for generally contracted gaussian basis sets)     Author: Roland Lindh, 1990

 Geometry written to block  1 of record 700


 Point group  C2v 



 ATOMIC COORDINATES

 NR  ATOM    CHARGE       X              Y              Z

   1  O       8.00    0.024354790    2.196491044    0.000000000
   2  O       8.00    0.024354790   -2.196491044    0.000000000
   3  O       8.00   13.990850086    0.000000000    0.000000000
   4  H       1.00   12.892654642    1.441989540    0.000000000
   5  H       1.00   12.892654642   -1.441989540    0.000000000
   6  C       6.00    0.006876713    0.000000000    0.000000000

 Bond lengths in Bohr (Angstrom)

 1-6  2.196560581  2-6  2.196560581  3-4  1.812558155  3-5  1.812558155
     (1.162369798)     (1.162369798)     (0.959164466)     (0.959164466)

 Bond angles

  1-6-2  179.08818302   4-3-5  105.41539946

 NUCLEAR CHARGE:                   32
 NUMBER OF PRIMITIVE AOS:         322
 NUMBER OF SYMMETRY AOS:          282
 NUMBER OF CONTRACTIONS:          230   (  84A1  +  68B1  +  45B2  +  33A2  )
 NUMBER OF CORE ORBITALS:           4   (   3A1  +   1B1  +   0B2  +   0A2  )
 NUMBER OF VALENCE ORBITALS:       18   (   8A1  +   6B1  +   3B2  +   1A2  )


 NUCLEAR REPULSION ENERGY   83.29661565


 Eigenvalues of metric

         1 0.376E-03 0.404E-03 0.902E-03 0.183E-02 0.318E-02 0.321E-02 0.404E-02 0.516E-02
         2 0.348E-03 0.389E-03 0.922E-03 0.166E-02 0.175E-02 0.345E-02 0.512E-02 0.627E-02
         3 0.318E-02 0.594E-02 0.136E-01 0.296E-01 0.319E-01 0.365E-01 0.590E-01 0.641E-01
         4 0.348E-02 0.124E-01 0.296E-01 0.362E-01 0.561E-01 0.680E-01 0.111E+00 0.140E+00


 Contracted 2-electron integrals neglected if value below      1.0D-11
 AO integral compression algorithm  1   Integral accuracy      1.0D-11

     195.297 MB (compressed) written to integral file ( 24.2%)

     Node minimum: 60.031 MB, node maximum: 74.711 MB


 NUMBER OF SORTED TWO-ELECTRON INTEGRALS:   30156294.     BUFFER LENGTH:  32768
 NUMBER OF SEGMENTS:   2  SEGMENT LENGTH:   15999663      RECORD LENGTH: 524288

 Memory used in sort:      16.56 MW

 SORT1 READ   101323154. AND WROTE    12540717. INTEGRALS IN     37 RECORDS. CPU TIME:     1.65 SEC, REAL TIME:     1.81 SEC
 SORT2 READ    37881471. AND WROTE    90461370. INTEGRALS IN    693 RECORDS. CPU TIME:     0.46 SEC, REAL TIME:     0.60 SEC

 Node minimum:    30151286.  Node maximum:    30156294. integrals

 OPERATOR DM      FOR CENTER  0  COORDINATES:    0.000000    0.000000    0.000000


 **********************************************************************************************************************************
 DATASETS  * FILE   NREC   LENGTH (MB)   RECORD NAMES
              1      18        3.24       500      610      700      900      950      970     1000      129      960     1100   
                                          VAR    BASINP    GEOM    SYMINP    ZMAT    AOBASIS   BASIS     P2S    ABASIS      S 
                                         1400     1410     1200     1210     1080     1600     1650     1700   
                                           T        V       H0       H01     AOSYM     SMH    MOLCAS    OPER   

 PROGRAMS   *        TOTAL       INT
 CPU TIMES  *         3.94      3.84
 REAL TIME  *         4.34 SEC
 DISK USED  *       650.06 MB      
 GA USED    *         0.00 MB       (max)       0.00 MB       (current)
 **********************************************************************************************************************************

1PROGRAM * RHF-SCF (CLOSED SHELL)       Authors: W. Meyer, H.-J. Werner


 NUMBER OF ELECTRONS:      16+   16-
 CONVERGENCE THRESHOLDS:    1.00E-05 (Density)    1.00E-07 (Energy)
 MAX. NUMBER OF ITERATIONS:       60
 INTERPOLATION TYPE:            DIIS
 INTERPOLATION STEPS:              2 (START)      1 (STEP)
 LEVEL SHIFTS:                  0.00 (CLOSED)  0.00 (OPEN) 



 Orbital guess generated from atomic densities. Full valence occupancy:   11   7   3   1

 Molecular orbital dump at record        2100.2

 Initial alpha occupancy:   8   5   2   1
 Initial beta  occupancy:   8   5   2   1
 Wave function symmetry:    1

 ITERATION    DDIFF          GRAD             ENERGY        2-EL.EN.            DIPOLE MOMENTS         DIIS
    1      0.000D+00      0.000D+00      -263.66002116    361.743999   -1.15217    0.00000    0.00000    0
    2      0.000D+00      0.882D-02      -263.72529959    357.336800   -0.67865    0.00000    0.00000    1
    3      0.142D-01      0.600D-02      -263.76881367    359.860167   -0.79404    0.00000    0.00000    2
    4      0.584D-02      0.563D-03      -263.76930931    359.645157   -0.79779    0.00000    0.00000    3
    5      0.690D-03      0.164D-03      -263.76936735    359.649945   -0.79238    0.00000    0.00000    4
    6      0.256D-03      0.659D-04      -263.76937450    359.663989   -0.79311    0.00000    0.00000    5
    7      0.847D-04      0.162D-04      -263.76937523    359.655806   -0.79265    0.00000    0.00000    6
    8      0.278D-04      0.356D-05      -263.76937528    359.657100   -0.79266    0.00000    0.00000    7
    9      0.762D-05      0.119D-05      -263.76937528    359.656923   -0.79262    0.00000    0.00000    0

 Final occupancy:   8   5   2   1

 !RHF STATE 1.1 Energy               -263.769375280077
 Nuclear energy                        83.29661565
 One-electron energy                 -526.89445254
 Two-electron energy                  179.82846161
 Virial quotient                       -1.00184463
 !RHF STATE 1.1 Dipole moment          -0.79262452     0.00000000     0.00000000
 Dipole moment /Debye                  -2.01451864     0.00000000     0.00000000

 Orbital energies:

         1.1          2.1          3.1          4.1          5.1          6.1          7.1          8.1          9.1         10.1
    -20.657322   -20.567805   -11.466150    -1.534845    -1.352624    -0.805153    -0.718977    -0.583449     0.025040     0.048735

         1.2          2.2          3.2          4.2          5.2          6.2          7.2
    -20.657368    -1.481790    -0.747347    -0.719175    -0.548641     0.046359     0.079095

         1.3          2.3          3.3          4.3
     -0.718924    -0.510580     0.069509     0.158045

         1.4          2.4          3.4
     -0.548613     0.160519     0.264355


 **********************************************************************************************************************************
 DATASETS  * FILE   NREC   LENGTH (MB)   RECORD NAMES
              1      18        3.25       500      610      700      900      950      970     1000      129      960     1100   
                                          VAR    BASINP    GEOM    SYMINP    ZMAT    AOBASIS   BASIS     P2S    ABASIS      S 
                                         1400     1410     1200     1210     1080     1600     1650     1700   
                                           T        V       H0       H01     AOSYM     SMH    MOLCAS    OPER   

              2       3        0.68       700     1000     2100   
                                         GEOM     BASIS     RHF  

 PROGRAMS   *        TOTAL        HF       INT
 CPU TIMES  *         5.12      1.18      3.84
 REAL TIME  *         5.58 SEC
 DISK USED  *       667.57 MB      
 SF USED    *         0.06 MB      
 GA USED    *         0.00 MB       (max)       0.00 MB       (current)
 **********************************************************************************************************************************


1PROGRAM * CCSD (Closed-shell coupled cluster)     Authors: C. Hampel, H.-J. Werner, 1991, M. Deegan, P.J. Knowles, 1992

                                  CCSD-F12 implementation by  H.-J. Werner, 2007

                   Density fitting integral evaluation by F.R. Manby, 2003,2007, G. Knizia, 2010

 Basis set CC-PVTZ/JKFIT generated.      Number of basis functions:   376 
 Basis set AUG-CC-PVTZ/MP2FIT generated. Number of basis functions:   516 

 Convergence thresholds:  THRVAR = 1.00D-08  THRDEN = 1.00D-06

 CCSD(T)     terms to be evaluated (factor= 1.000)


 Number of core orbitals:           4 (   3   1   0   0 )
 Number of closed-shell orbitals:  12 (   5   4   2   1 )
 Number of external orbitals:     214 (  76  63  43  32 )

 Molecular orbitals read from record     2100.2  Type=RHF/CANONICAL (state 1.1)

 MP2-F12 correlation treatment (H.-J. Werner, 2006)
 --------------------------------------------------

 Using MP2-F12 with ansatz 3C(FIX)

 Using projected zeroth-order Hamiltonian (+Z)

 FOCKRIB=T FOCKRIC=T FOCKRIP=T CABSP=T CABSA=T CABSK=T CABSF=T GBC=F EBC=F DMAT=T NOFIK=T NOPAO=1 SOLVE=-1  USEPAO=0
 EXCH_A= T EXCH_B= F EXCH_C= F EXCH_P= F
 
 Geminal basis:    OPTFULL  GEM_TYPE=SLATER  BETA=1.0  NGEM=6

 Optimizing Gaussian exponents for each gem_beta

 Geminal optimization for beta= 1.0000
 Weight function:   m=0, omega= 1.4646

 Augmented Hessian optimization of geminal fit. Trust ratio= 0.40000
 Convergence reached after   2 iterations. Final gradient= 8.24D-16, Step= 4.32D-06, Delta= 1.28D-09
 
 Alpha:                 0.19532     0.81920     2.85917     9.50073    35.69989   197.79328
 Coeff:                 0.27070     0.30552     0.18297     0.10986     0.06810     0.04224
 

 Symmetry turned off. Reference energy:       -263.769375280077

 All pairs explicitly correlated. Number of r12-pairs:           78
 
 AO(A)-basis ORBITAL           loaded. Number of functions:     230
 RI(R)-basis CC-PVTZ/JKFIT     loaded. Number of functions:     376
 DF-basis CC-PVTZ/JKFIT        loaded. Number of functions:     376

 Screening thresholds:   THRAO=  1.00D-10  THRMO=  1.00D-09  THRPROD=  1.00D-09
                         THRSW=  1.00D-05  THROV=  1.00D-12  THRF12=   1.00D-08

 CPU time for Fock operators                      0.89 sec
 
 Construction of ABS:
 Smallest eigenvalue of S          2.57E-04  (threshold= 1.00E-08)
 Ratio eigmin/eigmax               1.83E-06  (threshold= 1.00E-09)
 Smallest eigenvalue of S kept     2.57E-04  (threshold= 2.57E-04, 0 functions deleted, 376 kept)
 
 Construction of CABS:
 Smallest eigenvalue of S          2.30E-08  (threshold= 1.00E-08)
 Ratio eigmin/eigmax               2.30E-08  (threshold= 1.00E-09)
 Smallest eigenvalue of S kept     2.30E-08  (threshold= 2.30E-08, 0 functions deleted, 376 kept)
 
 CPU time for CABS singles                        0.16 sec

 CABS-singles contribution of  -0.01592161 patched into reference energy.
 New reference energy        -263.78529689
 
 AO(A)-basis ORBITAL           loaded. Number of functions:     230
 RI(R)-basis CC-PVTZ/JKFIT     loaded. Number of functions:     376
 DF-basis AUG-CC-PVTZ/MP2FIT   loaded. Number of functions:     516

 Screening thresholds:   THRAO=  1.00D-10  THRMO=  1.00D-09  THRPROD=  1.00D-09
                         THRSW=  1.00D-05  THROV=  1.00D-12  THRF12=   1.00D-08

 CPU time for 3-index integral evaluation         1.91 sec
 CPU time for first  half transformation          0.19 sec (13546.6 MFLOP/sec)
 CPU time for sorting                             0.13 sec
 CPU time for fitting                             0.05 sec (27861.0 MFLOP/sec)
 CPU time for tilde quantities                    0.05 sec (36977.6 MFLOP/sec)
 CPU time for assembly                            0.73 sec (31966.4 MFLOP/sec)
 CPU time for tranop_f12                          0.89 sec (33987.6 MFLOP/sec)
 CPU time for f12 integrals (total)               5.93 sec
 F12-matrices built in  3 passes.
 F12-matrices built in  3 passes.
 F12-matrices built in  3 passes.
 F12-matrices built in  3 passes.
 FC-matrix built in  3 passes.
 CPU time for f12 matrices (total)                0.50 sec

 Diagonal F12 approximation with fixed coefficients:  TSING= 0.500,  TTRIP= 0.250 (scaled by -1/beta)

 DF-MP2-F12 energy corrections:
 ------------------------------
 Approx.                                    Singlet             Triplet             Total
 DF-MP2-F12/3*C(DX,FIX)                -0.097446822443     -0.016932113388     -0.114378935831
 DF-MP2-F12/3*C(FIX)                   -0.079865571402     -0.013395064762     -0.093260636164
 DF-MP2-F12/3C(FIX)                    -0.080226591039     -0.013418148674     -0.093644739713

 DF-MP2-F12 correlation energies:
 --------------------------------
 Approx.                                    Singlet             Triplet             Ecorr            Total Energy
 DF-MP2                                -0.537778546887     -0.343115864368     -0.880894411255   -264.666191297585
 DF-MP2-F12/3*C(DX,FIX)                -0.635225369330     -0.360047977756     -0.995273347085   -264.780570233416
 DF-MP2-F12/3*C(FIX)                   -0.617644118289     -0.356510929130     -0.974155047419   -264.759451933749
 DF-MP2-F12/3C(FIX)                    -0.618005137926     -0.356534013041     -0.974539150968   -264.759836037298

 SCS-DF-MP2 energies (F_SING= 1.20000  F_TRIP= 0.62222  F_PARALLEL= 0.33333):
 ----------------------------------------------------------------------------
 SCS-DF-MP2                            -0.858828571871   -264.644125458201
 SCS-DF-MP2-F12/3*C(DX,FIX)            -0.986300296021   -264.771597182352
 SCS-DF-MP2-F12/3*C(FIX)               -0.963001964517   -264.748298850847
 SCS-DF-MP2-F12/3C(FIX)                -0.963449551404   -264.748746437734

 Symmetry restored.
 Symmetry transformation completed.

 Number of N-1 electron functions:              12
 Number of N-2 electron functions:              78
 Number of singly external CSFs:               750
 Number of doubly external CSFs:            844332
 Total number of CSFs:                      845083

 Pair and operator lists are different

 Length of J-op  integral file:             462.28 MB
 Length of K-op  integral file:             502.25 MB
 Length of 3-ext integral record:             0.00 MB

 Memory could be reduced to 38.71 Mwords without degradation in triples

 Integral transformation finished. Total CPU:   1.36 sec, npass=  1  Memory used:   7.09 MW

 Reference energy:                   -263.78529689

 Adding F12 terms to K(Cij), methodcc=6,  factor=1.0

 ITER.      SQ.NORM     CORR.ENERGY   TOTAL ENERGY   ENERGY CHANGE        DEN1      VAR(S)    VAR(P)  DIIS     TIME
   1      1.20220726    -0.86282602  -264.64812290     0.01808485     0.04673897  0.72D-02  0.56D-02  1  1    10.05
   2      1.21653058    -0.85859380  -264.64389068     0.00423222    -0.02016597  0.86D-04  0.59D-03  2  2    10.97
   3      1.22189582    -0.85868991  -264.64398680    -0.00009612    -0.00236543  0.13D-03  0.32D-04  3  3    11.90
   4      1.22470014    -0.85856175  -264.64385864     0.00012816    -0.00141224  0.76D-05  0.41D-05  4  4    12.83
   5      1.22573149    -0.85852399  -264.64382088     0.00003776    -0.00036682  0.56D-06  0.29D-06  5  5    13.77
   6      1.22589393    -0.85849710  -264.64379399     0.00002689    -0.00000807  0.40D-07  0.24D-07  6  6    14.71
   7      1.22592333    -0.85849468  -264.64379157     0.00000243    -0.00000623  0.25D-08  0.40D-08  6  4    15.63
   8      1.22592363    -0.85849419  -264.64379108     0.00000049     0.00000195  0.39D-09  0.27D-09  6  1    16.53
   9      1.22592425    -0.85849426  -264.64379115    -0.00000007     0.00000056  0.26D-10  0.21D-10  6  2    17.44

 Norm of t1 vector:      0.10600779      S-energy:    -0.00000002      T1 diagnostic:  0.01530091
                                                                       D1 diagnostic:  0.04496118

 Adding energy correction from Wij-K(Fij), methodcc=6  factor=1.0
 
  CCSD correlation energy              -0.858494258771
  MP2-F12 correction (uncoupled)       -0.092487705839
  C*T doubles correction               -0.001475408432
  f12b correction                       0.015408069652


 Total CPU time for triples:     27.23 sec


 RESULTS
 =======

  Reference energy                   -263.769375280077
  F12 singles correction               -0.015921606253

 F12 singles corrections added to reference energy

  New reference energy               -263.785296886330

  F12a singlet correction              -0.080426253470
  F12a triplet correction              -0.013536860802
  F12a total correction                -0.093963114271

 F12a corrections for ansatz F12/3C(FIX) added to CCSD energy
 
  CCSD-F12a singlet pair energy        -0.641939408530
  CCSD-F12a triplet pair energy        -0.310517941243
  CCSD-F12a correlation energy         -0.952457373042

  Triples (T) contribution             -0.037656023607
  Total correlation energy             -0.990113396649

  CCSD-F12a total energy             -264.737754259372
  CCSD[T]-F12a energy                -264.777956988253
  CCSD-T-F12a energy                 -264.774471685633
 !CCSD(T)-F12a total energy          -264.775410282979

 F12b corrections for ansatz F12/3C(FIX) added to CCSD(T)-F12a energy

  CCSD-F12b singlet pair energy        -0.627754661767
  CCSD-F12b triplet pair energy        -0.309294618354
  CCSD-F12b correlation energy         -0.937049303390

  Triples (T) contribution             -0.037656023607
  Total correlation energy             -0.974705326997

  CCSD-F12b total energy             -264.722346189720
  CCSD[T]-F12b energy                -264.762548918601
  CCSD-T-F12b energy                 -264.759063615981
 !CCSD(T)-F12b total energy          -264.760002213327

 Timing summary (sec):

 STEP                 CPU(USER)    SYS     CPU(TOT)    WALL
 Transformation          1.37      0.20      1.57      1.57
 CCSD iterations         8.25      0.61      8.86      9.93
 Triples                27.23      0.75     27.98     27.96
 MP2-F12                 7.82      1.12      8.94      8.94
 F12b energy             0.53      0.01      0.54      0.55

 Program statistics:

 Available memory in ccsd:                99998934
 Min. memory needed in ccsd:               2252999
 Max. memory used in ccsd:                 3011949
 Max. memory used in cckext:               2777209 (10 integral passes)



 **********************************************************************************************************************************
 DATASETS  * FILE   NREC   LENGTH (MB)   RECORD NAMES
              1      20      137.17       500      610      700      900      950      970     1000      129      960     1100   
                                          VAR    BASINP    GEOM    SYMINP    ZMAT    AOBASIS   BASIS     P2S    ABASIS      S 
                                         1400     1410     1200     1210     1080     1600     1650     1700      960(1)  1380   
                                           T        V       H0       H01     AOSYM     SMH    MOLCAS    OPER    ABASIS    JKOP   

              2       5        0.98       700     1000     2100     7360     7350   
                                         GEOM     BASIS     RHF    F12ABS    EF12   

 PROGRAMS   *        TOTAL   CCSD(T)        HF       INT
 CPU TIMES  *        50.44     45.32      1.18      3.84
 REAL TIME  *        54.76 SEC
 DISK USED  *       889.30 MB      
 SF USED    *         1.34 GB      
 GA USED    *         2.40 MB       (max)       0.00 MB       (current)
 **********************************************************************************************************************************

     CCSD(T)-F12        HF-SCF  
   -264.76000221   -263.76937528
 **********************************************************************************************************************************
 Variable memory released
