
 Primary working directories    : /scratch/kee
 Secondary working directories  : /scratch/kee
 Wavefunction directory         : /home/kee/wfu/
 Main file repository           : /scratch/kee/

 ARCHNAME  : Linux/x86_64
 FC        : /opt/intel/composer_xe_2015.0.090/bin/intel64/ifort
 FCVERSION : 15.0.0
 BLASLIB   : -L/opt/intel/mkl/lib/intel64 -lmkl_intel_ilp64 -lmkl_sequential -lmkl_core
 id        : emory

 Nodes     nprocs
 node20       3
 Number of processes for MPI-2 version of Molpro:   nprocs(total)=    4   nprocs(compute)=    3   nprocs(helper)=    1
 ga_uses_ma=false, calling ma_init with nominal heap.
 GA-space will be limited to   8.0 MW (determined by -G option)

 Using customized tuning parameters: mindgm=7; mindgv=32; mindgc=1; mindgr=1; noblas=0; mincuda=1000; minvec=7
 default implementation of scratch files=sf  

 ***,co2h2o
 memory,100,m
 basis avtz
 geomtype = xyz
 geometry = {
 6
       0.00000000
 O     0.01288800    1.16233300    0.00000000
 O     0.01288800   -1.16233300    0.00000000
 O     7.50363900    0.00000000    0.00000000
 H     6.92249900    0.76306800    0.00000000
 H     6.92249900   -0.76306800    0.00000000
 C     0.00363900    0.00000000    0.00000000
 }
 hf
 ccsd(t)-f12
 ---

 Variables initialized (665), CPU time= 0.01 sec
 Commands  initialized (462), CPU time= 0.01 sec, 486 directives.
 Default parameters read. Elapsed time= 0.03 sec

 Checking input...
 Passed
1


                                         ***  PROGRAM SYSTEM MOLPRO  ***
                         Copyright, University College Cardiff Consultants Limited, 2008

                                    Version 2010.1 linked 9 Dec 2014 15:06:28 


 **********************************************************************************************************************************
 LABEL *   co2h2o                                                                        
 Linux-2.6.32-504.el6.x86_64/node20(x86_64) 64 bit mpp version                           DATE: 15-Dec-16          TIME: 00:13:38  
 **********************************************************************************************************************************

 Patch level:      19
 **********************************************************************************************************************************

 Variable memory set to  100000000 words,  buffer space   230000 words

 SETTING BASIS          =    AVTZ
 SETTING GEOMTYPE       =    XYZ

Geometry recognized as XYZ



 Recomputing integrals since basis changed


 Using spherical harmonics

 Library entry O      S aug-cc-pVTZ          selected for orbital group  1
 Library entry O      P aug-cc-pVTZ          selected for orbital group  1
 Library entry O      D aug-cc-pVTZ          selected for orbital group  1
 Library entry O      F aug-cc-pVTZ          selected for orbital group  1
 Library entry H      S aug-cc-pVTZ          selected for orbital group  2
 Library entry H      P aug-cc-pVTZ          selected for orbital group  2
 Library entry H      D aug-cc-pVTZ          selected for orbital group  2
 Library entry C      S aug-cc-pVTZ          selected for orbital group  3
 Library entry C      P aug-cc-pVTZ          selected for orbital group  3
 Library entry C      D aug-cc-pVTZ          selected for orbital group  3
 Library entry C      F aug-cc-pVTZ          selected for orbital group  3

1PROGRAM * SEWARD (Integral evaluation for generally contracted gaussian basis sets)     Author: Roland Lindh, 1990

 Geometry written to block  1 of record 700


 Point group  C2v 



 ATOMIC COORDINATES

 NR  ATOM    CHARGE       X              Y              Z

   1  O       8.00    0.024354790    2.196491044    0.000000000
   2  O       8.00    0.024354790   -2.196491044    0.000000000
   3  O       8.00   14.179822699    0.000000000    0.000000000
   4  H       1.00   13.081627255    1.441989540    0.000000000
   5  H       1.00   13.081627255   -1.441989540    0.000000000
   6  C       6.00    0.006876713    0.000000000    0.000000000

 Bond lengths in Bohr (Angstrom)

 1-6  2.196560581  2-6  2.196560581  3-4  1.812558155  3-5  1.812558155
     (1.162369798)     (1.162369798)     (0.959164466)     (0.959164466)

 Bond angles

  1-6-2  179.08818302   4-3-5  105.41539946

 NUCLEAR CHARGE:                   32
 NUMBER OF PRIMITIVE AOS:         322
 NUMBER OF SYMMETRY AOS:          282
 NUMBER OF CONTRACTIONS:          230   (  84A1  +  68B1  +  45B2  +  33A2  )
 NUMBER OF CORE ORBITALS:           4   (   3A1  +   1B1  +   0B2  +   0A2  )
 NUMBER OF VALENCE ORBITALS:       18   (   8A1  +   6B1  +   3B2  +   1A2  )


 NUCLEAR REPULSION ENERGY   83.08566918


 Eigenvalues of metric

         1 0.376E-03 0.405E-03 0.902E-03 0.183E-02 0.318E-02 0.321E-02 0.404E-02 0.519E-02
         2 0.348E-03 0.389E-03 0.922E-03 0.166E-02 0.175E-02 0.345E-02 0.512E-02 0.627E-02
         3 0.318E-02 0.594E-02 0.136E-01 0.297E-01 0.319E-01 0.365E-01 0.590E-01 0.641E-01
         4 0.348E-02 0.124E-01 0.296E-01 0.362E-01 0.561E-01 0.680E-01 0.111E+00 0.140E+00


 Contracted 2-electron integrals neglected if value below      1.0D-11
 AO integral compression algorithm  1   Integral accuracy      1.0D-11

     193.200 MB (compressed) written to integral file ( 24.2%)

     Node minimum: 57.672 MB, node maximum: 73.138 MB


 NUMBER OF SORTED TWO-ELECTRON INTEGRALS:   30156294.     BUFFER LENGTH:  32768
 NUMBER OF SEGMENTS:   2  SEGMENT LENGTH:   15999663      RECORD LENGTH: 524288

 Memory used in sort:      16.56 MW

 SORT1 READ    99901829. AND WROTE    12370539. INTEGRALS IN     37 RECORDS. CPU TIME:     1.59 SEC, REAL TIME:     1.73 SEC
 SORT2 READ    37354207. AND WROTE    90461370. INTEGRALS IN    837 RECORDS. CPU TIME:     0.42 SEC, REAL TIME:     0.56 SEC

 Node minimum:    30151286.  Node maximum:    30156294. integrals

 OPERATOR DM      FOR CENTER  0  COORDINATES:    0.000000    0.000000    0.000000


 **********************************************************************************************************************************
 DATASETS  * FILE   NREC   LENGTH (MB)   RECORD NAMES
              1      18        3.24       500      610      700      900      950      970     1000      129      960     1100   
                                          VAR    BASINP    GEOM    SYMINP    ZMAT    AOBASIS   BASIS     P2S    ABASIS      S 
                                         1400     1410     1200     1210     1080     1600     1650     1700   
                                           T        V       H0       H01     AOSYM     SMH    MOLCAS    OPER   

 PROGRAMS   *        TOTAL       INT
 CPU TIMES  *         3.75      3.67
 REAL TIME  *         4.13 SEC
 DISK USED  *       646.99 MB      
 GA USED    *         0.00 MB       (max)       0.00 MB       (current)
 **********************************************************************************************************************************

1PROGRAM * RHF-SCF (CLOSED SHELL)       Authors: W. Meyer, H.-J. Werner


 NUMBER OF ELECTRONS:      16+   16-
 CONVERGENCE THRESHOLDS:    1.00E-05 (Density)    1.00E-07 (Energy)
 MAX. NUMBER OF ITERATIONS:       60
 INTERPOLATION TYPE:            DIIS
 INTERPOLATION STEPS:              2 (START)      1 (STEP)
 LEVEL SHIFTS:                  0.00 (CLOSED)  0.00 (OPEN) 



 Orbital guess generated from atomic densities. Full valence occupancy:   11   7   3   1

 Molecular orbital dump at record        2100.2

 Initial alpha occupancy:   8   5   2   1
 Initial beta  occupancy:   8   5   2   1
 Wave function symmetry:    1

 ITERATION    DDIFF          GRAD             ENERGY        2-EL.EN.            DIPOLE MOMENTS         DIIS
    1      0.000D+00      0.000D+00      -263.66003199    361.329372   -1.15217    0.00000    0.00000    0
    2      0.000D+00      0.882D-02      -263.72530860    356.918883   -0.67840    0.00000    0.00000    1
    3      0.142D-01      0.599D-02      -263.76881747    359.443068   -0.79384    0.00000    0.00000    2
    4      0.584D-02      0.563D-03      -263.76931311    359.228105   -0.79761    0.00000    0.00000    3
    5      0.690D-03      0.164D-03      -263.76937115    359.232851   -0.79220    0.00000    0.00000    4
    6      0.256D-03      0.659D-04      -263.76937830    359.246901   -0.79293    0.00000    0.00000    5
    7      0.847D-04      0.162D-04      -263.76937903    359.238716   -0.79247    0.00000    0.00000    6
    8      0.278D-04      0.356D-05      -263.76937908    359.240010   -0.79247    0.00000    0.00000    7
    9      0.761D-05      0.119D-05      -263.76937908    359.239833   -0.79244    0.00000    0.00000    0

 Final occupancy:   8   5   2   1

 !RHF STATE 1.1 Energy               -263.769379079936
 Nuclear energy                        83.08566918
 One-electron energy                 -526.47496468
 Two-electron energy                  179.61991642
 Virial quotient                       -1.00184468
 !RHF STATE 1.1 Dipole moment          -0.79244154     0.00000000     0.00000000
 Dipole moment /Debye                  -2.01405357     0.00000000     0.00000000

 Orbital energies:

         1.1          2.1          3.1          4.1          5.1          6.1          7.1          8.1          9.1         10.1
    -20.657224   -20.567778   -11.466053    -1.534747    -1.352598    -0.805058    -0.718878    -0.583423     0.025075     0.048558

         1.2          2.2          3.2          4.2          5.2          6.2          7.2
    -20.657270    -1.481693    -0.747252    -0.719149    -0.548543     0.046347     0.078937

         1.3          2.3          3.3          4.3
     -0.718827    -0.510554     0.069588     0.158048

         1.4          2.4          3.4
     -0.548517     0.160591     0.264369


 **********************************************************************************************************************************
 DATASETS  * FILE   NREC   LENGTH (MB)   RECORD NAMES
              1      18        3.25       500      610      700      900      950      970     1000      129      960     1100   
                                          VAR    BASINP    GEOM    SYMINP    ZMAT    AOBASIS   BASIS     P2S    ABASIS      S 
                                         1400     1410     1200     1210     1080     1600     1650     1700   
                                           T        V       H0       H01     AOSYM     SMH    MOLCAS    OPER   

              2       3        0.68       700     1000     2100   
                                         GEOM     BASIS     RHF  

 PROGRAMS   *        TOTAL        HF       INT
 CPU TIMES  *         4.86      1.11      3.67
 REAL TIME  *         5.32 SEC
 DISK USED  *       664.49 MB      
 SF USED    *         0.06 MB      
 GA USED    *         0.00 MB       (max)       0.00 MB       (current)
 **********************************************************************************************************************************


1PROGRAM * CCSD (Closed-shell coupled cluster)     Authors: C. Hampel, H.-J. Werner, 1991, M. Deegan, P.J. Knowles, 1992

                                  CCSD-F12 implementation by  H.-J. Werner, 2007

                   Density fitting integral evaluation by F.R. Manby, 2003,2007, G. Knizia, 2010

 Basis set CC-PVTZ/JKFIT generated.      Number of basis functions:   376 
 Basis set AUG-CC-PVTZ/MP2FIT generated. Number of basis functions:   516 

 Convergence thresholds:  THRVAR = 1.00D-08  THRDEN = 1.00D-06

 CCSD(T)     terms to be evaluated (factor= 1.000)


 Number of core orbitals:           4 (   3   1   0   0 )
 Number of closed-shell orbitals:  12 (   5   4   2   1 )
 Number of external orbitals:     214 (  76  63  43  32 )

 Molecular orbitals read from record     2100.2  Type=RHF/CANONICAL (state 1.1)

 MP2-F12 correlation treatment (H.-J. Werner, 2006)
 --------------------------------------------------

 Using MP2-F12 with ansatz 3C(FIX)

 Using projected zeroth-order Hamiltonian (+Z)

 FOCKRIB=T FOCKRIC=T FOCKRIP=T CABSP=T CABSA=T CABSK=T CABSF=T GBC=F EBC=F DMAT=T NOFIK=T NOPAO=1 SOLVE=-1  USEPAO=0
 EXCH_A= T EXCH_B= F EXCH_C= F EXCH_P= F
 
 Geminal basis:    OPTFULL  GEM_TYPE=SLATER  BETA=1.0  NGEM=6

 Optimizing Gaussian exponents for each gem_beta

 Geminal optimization for beta= 1.0000
 Weight function:   m=0, omega= 1.4646

 Augmented Hessian optimization of geminal fit. Trust ratio= 0.40000
 Convergence reached after   2 iterations. Final gradient= 8.24D-16, Step= 4.32D-06, Delta= 1.28D-09
 
 Alpha:                 0.19532     0.81920     2.85917     9.50073    35.69989   197.79328
 Coeff:                 0.27070     0.30552     0.18297     0.10986     0.06810     0.04224
 

 Symmetry turned off. Reference energy:       -263.769379079936

 All pairs explicitly correlated. Number of r12-pairs:           78
 
 AO(A)-basis ORBITAL           loaded. Number of functions:     230
 RI(R)-basis CC-PVTZ/JKFIT     loaded. Number of functions:     376
 DF-basis CC-PVTZ/JKFIT        loaded. Number of functions:     376

 Screening thresholds:   THRAO=  1.00D-10  THRMO=  1.00D-09  THRPROD=  1.00D-09
                         THRSW=  1.00D-05  THROV=  1.00D-12  THRF12=   1.00D-08

 CPU time for Fock operators                      0.89 sec
 
 Construction of ABS:
 Smallest eigenvalue of S          2.57E-04  (threshold= 1.00E-08)
 Ratio eigmin/eigmax               1.83E-06  (threshold= 1.00E-09)
 Smallest eigenvalue of S kept     2.57E-04  (threshold= 2.57E-04, 0 functions deleted, 376 kept)
 
 Construction of CABS:
 Smallest eigenvalue of S          2.30E-08  (threshold= 1.00E-08)
 Ratio eigmin/eigmax               2.30E-08  (threshold= 1.00E-09)
 Smallest eigenvalue of S kept     2.30E-08  (threshold= 2.30E-08, 0 functions deleted, 376 kept)
 
 CPU time for CABS singles                        0.16 sec

 CABS-singles contribution of  -0.01592145 patched into reference energy.
 New reference energy        -263.78530053
 
 AO(A)-basis ORBITAL           loaded. Number of functions:     230
 RI(R)-basis CC-PVTZ/JKFIT     loaded. Number of functions:     376
 DF-basis AUG-CC-PVTZ/MP2FIT   loaded. Number of functions:     516

 Screening thresholds:   THRAO=  1.00D-10  THRMO=  1.00D-09  THRPROD=  1.00D-09
                         THRSW=  1.00D-05  THROV=  1.00D-12  THRF12=   1.00D-08

 CPU time for 3-index integral evaluation         1.83 sec
 CPU time for first  half transformation          0.24 sec (10764.0 MFLOP/sec)
 CPU time for sorting                             0.16 sec
 CPU time for fitting                             0.06 sec (23217.5 MFLOP/sec)
 CPU time for tilde quantities                    0.05 sec (36977.6 MFLOP/sec)
 CPU time for assembly                            0.78 sec (30526.3 MFLOP/sec)
 CPU time for tranop_f12                          0.89 sec (34308.8 MFLOP/sec)
 CPU time for f12 integrals (total)               6.06 sec
 F12-matrices built in  3 passes.
 F12-matrices built in  3 passes.
 F12-matrices built in  3 passes.
 F12-matrices built in  3 passes.
 FC-matrix built in  3 passes.
 CPU time for f12 matrices (total)                0.50 sec

 Diagonal F12 approximation with fixed coefficients:  TSING= 0.500,  TTRIP= 0.250 (scaled by -1/beta)

 DF-MP2-F12 energy corrections:
 ------------------------------
 Approx.                                    Singlet             Triplet             Total
 DF-MP2-F12/3*C(DX,FIX)                -0.097447114304     -0.016932154658     -0.114379268962
 DF-MP2-F12/3*C(FIX)                   -0.079865866491     -0.013395104341     -0.093260970832
 DF-MP2-F12/3C(FIX)                    -0.080226881670     -0.013418184346     -0.093645066016

 DF-MP2-F12 correlation energies:
 --------------------------------
 Approx.                                    Singlet             Triplet             Ecorr            Total Energy
 DF-MP2                                -0.537777414086     -0.343114490160     -0.880891904246   -264.666192429282
 DF-MP2-F12/3*C(DX,FIX)                -0.635224528390     -0.360046644818     -0.995271173208   -264.780571698244
 DF-MP2-F12/3*C(FIX)                   -0.617643280577     -0.356509594501     -0.974152875077   -264.759453400114
 DF-MP2-F12/3C(FIX)                    -0.618004295756     -0.356532674505     -0.974536970261   -264.759837495298

 SCS-DF-MP2 energies (F_SING= 1.20000  F_TRIP= 0.62222  F_PARALLEL= 0.33333):
 ----------------------------------------------------------------------------
 SCS-DF-MP2                            -0.858826357447   -264.644126882483
 SCS-DF-MP2-F12/3*C(DX,FIX)            -0.986298457510   -264.771598982546
 SCS-DF-MP2-F12/3*C(FIX)               -0.963000128826   -264.748300653862
 SCS-DF-MP2-F12/3C(FIX)                -0.963447707933   -264.748748232969

 Symmetry restored.
 Symmetry transformation completed.

 Number of N-1 electron functions:              12
 Number of N-2 electron functions:              78
 Number of singly external CSFs:               750
 Number of doubly external CSFs:            844332
 Total number of CSFs:                      845083

 Pair and operator lists are different

 Length of J-op  integral file:             462.28 MB
 Length of K-op  integral file:             502.25 MB
 Length of 3-ext integral record:             0.00 MB

 Memory could be reduced to 38.71 Mwords without degradation in triples

 Integral transformation finished. Total CPU:   1.47 sec, npass=  1  Memory used:   7.09 MW

 Reference energy:                   -263.78530053

 Adding F12 terms to K(Cij), methodcc=6,  factor=1.0

 ITER.      SQ.NORM     CORR.ENERGY   TOTAL ENERGY   ENERGY CHANGE        DEN1      VAR(S)    VAR(P)  DIIS     TIME
   1      1.20220634    -0.86282389  -264.64812442     0.01808447     0.04673826  0.72D-02  0.56D-02  1  1    10.49
   2      1.21652950    -0.85859177  -264.64389230     0.00423212    -0.02016577  0.86D-04  0.59D-03  2  2    11.49
   3      1.22189471    -0.85868790  -264.64398843    -0.00009613    -0.00236544  0.13D-03  0.32D-04  3  3    12.51
   4      1.22469902    -0.85855975  -264.64386027     0.00012815    -0.00141224  0.76D-05  0.41D-05  4  4    13.49
   5      1.22573035    -0.85852199  -264.64382251     0.00003776    -0.00036681  0.56D-06  0.29D-06  5  5    14.49
   6      1.22589279    -0.85849510  -264.64379562     0.00002689    -0.00000807  0.40D-07  0.24D-07  6  6    15.50
   7      1.22592218    -0.85849267  -264.64379320     0.00000243    -0.00000623  0.25D-08  0.40D-08  6  4    16.48
   8      1.22592248    -0.85849219  -264.64379271     0.00000049     0.00000195  0.39D-09  0.27D-09  6  1    17.47
   9      1.22592309    -0.85849225  -264.64379278    -0.00000007     0.00000056  0.26D-10  0.21D-10  6  2    18.45

 Norm of t1 vector:      0.10600731      S-energy:    -0.00000002      T1 diagnostic:  0.01530084
                                                                       D1 diagnostic:  0.04496083

 Adding energy correction from Wij-K(Fij), methodcc=6  factor=1.0
 
  CCSD correlation energy              -0.858492252129
  MP2-F12 correction (uncoupled)       -0.092488018160
  C*T doubles correction               -0.001475414665
  f12b correction                       0.015408092541


 Total CPU time for triples:     31.46 sec


 RESULTS
 =======

  Reference energy                   -263.769379079936
  F12 singles correction               -0.015921445100

 F12 singles corrections added to reference energy

  New reference energy               -263.785300525036

  F12a singlet correction              -0.080426533365
  F12a triplet correction              -0.013536899461
  F12a total correction                -0.093963432825

 F12a corrections for ansatz F12/3C(FIX) added to CCSD energy
 
  CCSD-F12a singlet pair energy        -0.641938730530
  CCSD-F12a triplet pair energy        -0.310516931196
  CCSD-F12a correlation energy         -0.952455684954

  Triples (T) contribution             -0.037655649200
  Total correlation energy             -0.990111334154

  CCSD-F12a total energy             -264.737756209990
  CCSD[T]-F12a energy                -264.777958518659
  CCSD-T-F12a energy                 -264.774473280279
 !CCSD(T)-F12a total energy          -264.775411859190

 F12b corrections for ansatz F12/3C(FIX) added to CCSD(T)-F12a energy

  CCSD-F12b singlet pair energy        -0.627753962491
  CCSD-F12b triplet pair energy        -0.309293606694
  CCSD-F12b correlation energy         -0.937047592413

  Triples (T) contribution             -0.037655649200
  Total correlation energy             -0.974703241613

  CCSD-F12b total energy             -264.722348117449
  CCSD[T]-F12b energy                -264.762550426118
  CCSD-T-F12b energy                 -264.759065187737
 !CCSD(T)-F12b total energy          -264.760003766649

 Timing summary (sec):

 STEP                 CPU(USER)    SYS     CPU(TOT)    WALL
 Transformation          1.48      0.21      1.69      1.69
 CCSD iterations         8.97      0.65      9.62      9.62
 Triples                31.46      1.03     32.49     32.51
 MP2-F12                 8.00      1.12      9.12      9.13
 F12b energy             0.58      0.01      0.59      0.58

 Program statistics:

 Available memory in ccsd:                99998934
 Min. memory needed in ccsd:               2252999
 Max. memory used in ccsd:                 3011949
 Max. memory used in cckext:               2777209 (10 integral passes)



 **********************************************************************************************************************************
 DATASETS  * FILE   NREC   LENGTH (MB)   RECORD NAMES
              1      20      137.17       500      610      700      900      950      970     1000      129      960     1100   
                                          VAR    BASINP    GEOM    SYMINP    ZMAT    AOBASIS   BASIS     P2S    ABASIS      S 
                                         1400     1410     1200     1210     1080     1600     1650     1700      960(1)  1380   
                                           T        V       H0       H01     AOSYM     SMH    MOLCAS    OPER    ABASIS    JKOP   

              2       5        0.98       700     1000     2100     7360     7350   
                                         GEOM     BASIS     RHF    F12ABS    EF12   

 PROGRAMS   *        TOTAL   CCSD(T)        HF       INT
 CPU TIMES  *        55.37     50.51      1.11      3.67
 REAL TIME  *        59.07 SEC
 DISK USED  *       886.22 MB      
 SF USED    *         1.34 GB      
 GA USED    *         2.40 MB       (max)       0.00 MB       (current)
 **********************************************************************************************************************************

     CCSD(T)-F12        HF-SCF  
   -264.76000377   -263.76937908
 **********************************************************************************************************************************
 Variable memory released
