
 Primary working directories    : /scratch/kee
 Secondary working directories  : /scratch/kee
 Wavefunction directory         : /home/kee/wfu/
 Main file repository           : /scratch/kee/

 ARCHNAME  : Linux/x86_64
 FC        : /opt/intel/composer_xe_2015.0.090/bin/intel64/ifort
 FCVERSION : 15.0.0
 BLASLIB   : -L/opt/intel/mkl/lib/intel64 -lmkl_intel_ilp64 -lmkl_sequential -lmkl_core
 id        : emory

 Nodes     nprocs
 node19       3
 Number of processes for MPI-2 version of Molpro:   nprocs(total)=    4   nprocs(compute)=    3   nprocs(helper)=    1
 ga_uses_ma=false, calling ma_init with nominal heap.
 GA-space will be limited to   8.0 MW (determined by -G option)

 Using customized tuning parameters: mindgm=7; mindgv=32; mindgc=1; mindgr=1; noblas=0; mincuda=1000; minvec=7
 default implementation of scratch files=sf  

 ***,co2h2o
 memory,100,m
 basis avtz
 geomtype = xyz
 geometry = {
 3
       0.00000000
 O     0.01288800    1.16233300    0.00000000
 O     0.01288800   -1.16233300    0.00000000
 C     0.00363900    0.00000000    0.00000000
 }
 hf
 ccsd(t)-f12
 ---

 Variables initialized (665), CPU time= 0.01 sec
 Commands  initialized (462), CPU time= 0.00 sec, 486 directives.
 Default parameters read. Elapsed time= 0.03 sec

 Checking input...
 Passed
1


                                         ***  PROGRAM SYSTEM MOLPRO  ***
                         Copyright, University College Cardiff Consultants Limited, 2008

                                    Version 2010.1 linked 9 Dec 2014 15:06:28 


 **********************************************************************************************************************************
 LABEL *   co2h2o                                                                        
 Linux-2.6.32-504.el6.x86_64/node19(x86_64) 64 bit mpp version                           DATE: 15-Dec-16          TIME: 00:10:33  
 **********************************************************************************************************************************

 Patch level:      19
 **********************************************************************************************************************************

 Variable memory set to  100000000 words,  buffer space   230000 words

 SETTING BASIS          =    AVTZ
 SETTING GEOMTYPE       =    XYZ

Geometry recognized as XYZ



 Recomputing integrals since basis changed


 Using spherical harmonics

 Library entry O      S aug-cc-pVTZ          selected for orbital group  1
 Library entry O      P aug-cc-pVTZ          selected for orbital group  1
 Library entry O      D aug-cc-pVTZ          selected for orbital group  1
 Library entry O      F aug-cc-pVTZ          selected for orbital group  1
 Library entry C      S aug-cc-pVTZ          selected for orbital group  2
 Library entry C      P aug-cc-pVTZ          selected for orbital group  2
 Library entry C      D aug-cc-pVTZ          selected for orbital group  2
 Library entry C      F aug-cc-pVTZ          selected for orbital group  2

1PROGRAM * SEWARD (Integral evaluation for generally contracted gaussian basis sets)     Author: Roland Lindh, 1990

 Geometry written to block  1 of record 700


 Point group  C2v 



 ATOMIC COORDINATES

 NR  ATOM    CHARGE       X              Y              Z

   1  O       8.00    0.024354790    2.196491044    0.000000000
   2  O       8.00    0.024354790   -2.196491044    0.000000000
   3  C       6.00    0.006876713    0.000000000    0.000000000

 Bond lengths in Bohr (Angstrom)

 1-3  2.196560581  2-3  2.196560581
     (1.162369798)     (1.162369798)

 Bond angles

  1-3-2  179.08818302

 NUCLEAR CHARGE:                   22
 NUMBER OF PRIMITIVE AOS:         201
 NUMBER OF SYMMETRY AOS:          174
 NUMBER OF CONTRACTIONS:          138   (  49A1  +  41B1  +  27B2  +  21A2  )
 NUMBER OF CORE ORBITALS:           3   (   2A1  +   1B1  +   0B2  +   0A2  )
 NUMBER OF VALENCE ORBITALS:       12   (   5A1  +   4B1  +   2B2  +   1A2  )


 NUCLEAR REPULSION ENERGY   58.27338165


 Eigenvalues of metric

         1 0.420E-03 0.903E-03 0.318E-02 0.405E-02 0.540E-02 0.136E-01 0.149E-01 0.297E-01
         2 0.349E-03 0.923E-03 0.175E-02 0.348E-02 0.745E-02 0.205E-01 0.216E-01 0.296E-01
         3 0.318E-02 0.136E-01 0.297E-01 0.319E-01 0.590E-01 0.948E-01 0.108E+00 0.167E+00
         4 0.348E-02 0.296E-01 0.362E-01 0.561E-01 0.140E+00 0.199E+00 0.204E+00 0.240E+00


 Contracted 2-electron integrals neglected if value below      1.0D-11
 AO integral compression algorithm  1   Integral accuracy      1.0D-11

     67.633 MB (compressed) written to integral file ( 47.8%)

     Node minimum: 17.039 MB, node maximum: 26.739 MB


 NUMBER OF SORTED TWO-ELECTRON INTEGRALS:    3958824.     BUFFER LENGTH:  32768
 NUMBER OF SEGMENTS:   1  SEGMENT LENGTH:    3958824      RECORD LENGTH: 524288

 Memory used in sort:       4.52 MW

 SORT1 READ    17628860. AND WROTE     3522095. INTEGRALS IN     11 RECORDS. CPU TIME:     0.32 SEC, REAL TIME:     0.36 SEC
 SORT2 READ    10602491. AND WROTE    11875003. INTEGRALS IN    195 RECORDS. CPU TIME:     0.09 SEC, REAL TIME:     0.13 SEC

 Node minimum:     3957926.  Node maximum:     3958824. integrals

 OPERATOR DM      FOR CENTER  0  COORDINATES:    0.000000    0.000000    0.000000


 **********************************************************************************************************************************
 DATASETS  * FILE   NREC   LENGTH (MB)   RECORD NAMES
              1      18        2.82       500      610      700      900      950      970     1000      129      960     1100   
                                          VAR    BASINP    GEOM    SYMINP    ZMAT    AOBASIS   BASIS     P2S    ABASIS      S 
                                         1400     1410     1200     1210     1080     1600     1650     1700   
                                           T        V       H0       H01     AOSYM     SMH    MOLCAS    OPER   

 PROGRAMS   *        TOTAL       INT
 CPU TIMES  *         1.08      1.01
 REAL TIME  *         1.21 SEC
 DISK USED  *       197.43 MB      
 GA USED    *         0.00 MB       (max)       0.00 MB       (current)
 **********************************************************************************************************************************

1PROGRAM * RHF-SCF (CLOSED SHELL)       Authors: W. Meyer, H.-J. Werner


 NUMBER OF ELECTRONS:      11+   11-
 CONVERGENCE THRESHOLDS:    1.00E-05 (Density)    1.00E-07 (Energy)
 MAX. NUMBER OF ITERATIONS:       60
 INTERPOLATION TYPE:            DIIS
 INTERPOLATION STEPS:              2 (START)      1 (STEP)
 LEVEL SHIFTS:                  0.00 (CLOSED)  0.00 (OPEN) 



 Orbital guess generated from atomic densities. Full valence occupancy:    7   5   2   1

 Molecular orbital dump at record        2100.2

 Initial alpha occupancy:   5   4   1   1
 Initial beta  occupancy:   5   4   1   1
 Wave function symmetry:    1

 ITERATION    DDIFF          GRAD             ENERGY        2-EL.EN.            DIPOLE MOMENTS         DIIS
    1      0.000D+00      0.000D+00      -187.63740578    252.686736   -0.02728    0.00000    0.00000    0
    2      0.000D+00      0.122D-01      -187.67598080    251.729731   -0.00474    0.00000    0.00000    1
    3      0.190D-01      0.856D-02      -187.70862224    252.763010   -0.01317    0.00000    0.00000    2
    4      0.836D-02      0.715D-03      -187.70891034    252.556426   -0.01284    0.00000    0.00000    3
    5      0.871D-03      0.209D-03      -187.70894307    252.595900   -0.01271    0.00000    0.00000    4
    6      0.335D-03      0.509D-04      -187.70894528    252.591427   -0.01267    0.00000    0.00000    5
    7      0.101D-03      0.641D-05      -187.70894534    252.591861   -0.01268    0.00000    0.00000    6
    8      0.141D-04      0.119D-05      -187.70894534    252.591842   -0.01268    0.00000    0.00000    5
    9      0.284D-05      0.250D-06      -187.70894534    252.591868   -0.01268    0.00000    0.00000    0

 Final occupancy:   5   4   1   1

 !RHF STATE 1.1 Energy               -187.708945340755
 Nuclear energy                        58.27338165
 One-electron energy                 -372.27826092
 Two-electron energy                  126.29593393
 Virial quotient                       -1.00200097
 !RHF STATE 1.1 Dipole moment          -0.01267776     0.00000000     0.00000000
 Dipole moment /Debye                  -0.03222154     0.00000000     0.00000000

 Orbital energies:

         1.1          2.1          3.1          4.1          5.1          6.1          7.1
    -20.653500   -11.462347    -1.531017    -0.801369    -0.715117     0.047301     0.072861

         1.2          2.2          3.2          4.2          5.2          6.2
    -20.653546    -1.477970    -0.743570    -0.544818     0.078840     0.163728

         1.3          2.3          3.3
     -0.715119     0.072859     0.199633

         1.4          2.4          3.4
     -0.544824     0.163732     0.482906


 **********************************************************************************************************************************
 DATASETS  * FILE   NREC   LENGTH (MB)   RECORD NAMES
              1      18        2.82       500      610      700      900      950      970     1000      129      960     1100   
                                          VAR    BASINP    GEOM    SYMINP    ZMAT    AOBASIS   BASIS     P2S    ABASIS      S 
                                         1400     1410     1200     1210     1080     1600     1650     1700   
                                           T        V       H0       H01     AOSYM     SMH    MOLCAS    OPER   

              2       3        0.42       700     1000     2100   
                                         GEOM     BASIS     RHF  

 PROGRAMS   *        TOTAL        HF       INT
 CPU TIMES  *         1.25      0.17      1.01
 REAL TIME  *         1.40 SEC
 DISK USED  *       209.67 MB      
 SF USED    *         0.02 MB      
 GA USED    *         0.00 MB       (max)       0.00 MB       (current)
 **********************************************************************************************************************************


1PROGRAM * CCSD (Closed-shell coupled cluster)     Authors: C. Hampel, H.-J. Werner, 1991, M. Deegan, P.J. Knowles, 1992

                                  CCSD-F12 implementation by  H.-J. Werner, 2007

                   Density fitting integral evaluation by F.R. Manby, 2003,2007, G. Knizia, 2010

 Basis set CC-PVTZ/JKFIT generated.      Number of basis functions:   237 
 Basis set AUG-CC-PVTZ/MP2FIT generated. Number of basis functions:   318 

 Convergence thresholds:  THRVAR = 1.00D-08  THRDEN = 1.00D-06

 CCSD(T)     terms to be evaluated (factor= 1.000)


 Number of core orbitals:           3 (   2   1   0   0 )
 Number of closed-shell orbitals:   8 (   3   3   1   1 )
 Number of external orbitals:     127 (  44  37  26  20 )

 Molecular orbitals read from record     2100.2  Type=RHF/CANONICAL (state 1.1)

 MP2-F12 correlation treatment (H.-J. Werner, 2006)
 --------------------------------------------------

 Using MP2-F12 with ansatz 3C(FIX)

 Using projected zeroth-order Hamiltonian (+Z)

 FOCKRIB=T FOCKRIC=T FOCKRIP=T CABSP=T CABSA=T CABSK=T CABSF=T GBC=F EBC=F DMAT=T NOFIK=T NOPAO=1 SOLVE=-1  USEPAO=0
 EXCH_A= T EXCH_B= F EXCH_C= F EXCH_P= F
 
 Geminal basis:    OPTFULL  GEM_TYPE=SLATER  BETA=1.0  NGEM=6

 Optimizing Gaussian exponents for each gem_beta

 Geminal optimization for beta= 1.0000
 Weight function:   m=0, omega= 1.4646

 Augmented Hessian optimization of geminal fit. Trust ratio= 0.40000
 Convergence reached after   2 iterations. Final gradient= 8.24D-16, Step= 4.32D-06, Delta= 1.28D-09
 
 Alpha:                 0.19532     0.81920     2.85917     9.50073    35.69989   197.79328
 Coeff:                 0.27070     0.30552     0.18297     0.10986     0.06810     0.04224
 

 Symmetry turned off. Reference energy:       -187.708945340755

 All pairs explicitly correlated. Number of r12-pairs:           36
 
 AO(A)-basis ORBITAL           loaded. Number of functions:     138
 RI(R)-basis CC-PVTZ/JKFIT     loaded. Number of functions:     237
 DF-basis CC-PVTZ/JKFIT        loaded. Number of functions:     237

 Screening thresholds:   THRAO=  1.00D-10  THRMO=  1.00D-09  THRPROD=  1.00D-09
                         THRSW=  1.00D-05  THROV=  1.00D-12  THRF12=   1.00D-08

 CPU time for Fock operators                      0.26 sec
 
 Construction of ABS:
 Smallest eigenvalue of S          2.57E-04  (threshold= 1.00E-08)
 Ratio eigmin/eigmax               1.83E-06  (threshold= 1.00E-09)
 Smallest eigenvalue of S kept     2.57E-04  (threshold= 2.57E-04, 0 functions deleted, 237 kept)
 
 Construction of CABS:
 Smallest eigenvalue of S          2.30E-08  (threshold= 1.00E-08)
 Ratio eigmin/eigmax               2.30E-08  (threshold= 1.00E-09)
 Smallest eigenvalue of S kept     2.30E-08  (threshold= 2.30E-08, 0 functions deleted, 237 kept)
 
 CPU time for CABS singles                        0.05 sec

 CABS-singles contribution of  -0.01134611 patched into reference energy.
 New reference energy        -187.72029145
 
 AO(A)-basis ORBITAL           loaded. Number of functions:     138
 RI(R)-basis CC-PVTZ/JKFIT     loaded. Number of functions:     237
 DF-basis AUG-CC-PVTZ/MP2FIT   loaded. Number of functions:     318

 Screening thresholds:   THRAO=  1.00D-10  THRMO=  1.00D-09  THRPROD=  1.00D-09
                         THRSW=  1.00D-05  THROV=  1.00D-12  THRF12=   1.00D-08

 CPU time for 3-index integral evaluation         0.83 sec
 CPU time for first  half transformation          0.07 sec ( 6899.7 MFLOP/sec)
 CPU time for sorting                             0.02 sec
 CPU time for fitting                             0.01 sec (24532.7 MFLOP/sec)
 CPU time for tilde quantities                    0.01 sec (32460.8 MFLOP/sec)
 CPU time for assembly                            0.09 sec (28335.6 MFLOP/sec)
 CPU time for tranop_f12                          0.10 sec (30925.7 MFLOP/sec)
 CPU time for f12 integrals (total)               1.59 sec
 F12-matrices built in  3 passes.
 F12-matrices built in  3 passes.
 F12-matrices built in  3 passes.
 F12-matrices built in  3 passes.
 FC-matrix built in  3 passes.
 CPU time for f12 matrices (total)                0.05 sec

 Diagonal F12 approximation with fixed coefficients:  TSING= 0.500,  TTRIP= 0.250 (scaled by -1/beta)

 DF-MP2-F12 energy corrections:
 ------------------------------
 Approx.                                    Singlet             Triplet             Total
 DF-MP2-F12/3*C(DX,FIX)                -0.067693643105     -0.012040489380     -0.079734132485
 DF-MP2-F12/3*C(FIX)                   -0.055402779918     -0.009593909499     -0.064996689416
 DF-MP2-F12/3C(FIX)                    -0.055647022716     -0.009627564460     -0.065274587176

 DF-MP2-F12 correlation energies:
 --------------------------------
 Approx.                                    Singlet             Triplet             Ecorr            Total Energy
 DF-MP2                                -0.367105322404     -0.245334697021     -0.612440019426   -188.332731469602
 DF-MP2-F12/3*C(DX,FIX)                -0.434798965509     -0.257375186401     -0.692174151910   -188.412465602087
 DF-MP2-F12/3*C(FIX)                   -0.422508102322     -0.254928606520     -0.677436708842   -188.397728159018
 DF-MP2-F12/3C(FIX)                    -0.422752345120     -0.254962261481     -0.677714606601   -188.398006056778

 SCS-DF-MP2 energies (F_SING= 1.20000  F_TRIP= 0.62222  F_PARALLEL= 0.33333):
 ----------------------------------------------------------------------------
 SCS-DF-MP2                            -0.593179087254   -188.313470537430
 SCS-DF-MP2-F12/3*C(DX,FIX)            -0.681903319039   -188.402194769215
 SCS-DF-MP2-F12/3*C(FIX)               -0.665631966843   -188.385923417019
 SCS-DF-MP2-F12/3C(FIX)                -0.665945999066   -188.386237449242

 Symmetry restored.
 Symmetry transformation completed.

 Number of N-1 electron functions:               8
 Number of N-2 electron functions:              36
 Number of singly external CSFs:               289
 Number of doubly external CSFs:            131990
 Total number of CSFs:                      132280

 Pair and operator lists are different

 Length of J-op  integral file:              79.26 MB
 Length of K-op  integral file:              91.39 MB
 Length of 3-ext integral record:             0.00 MB

 Memory could be reduced to 6.18 Mwords without degradation in triples

 Integral transformation finished. Total CPU:   0.16 sec, npass=  1  Memory used:   1.11 MW

 Reference energy:                   -187.72029145

 Adding F12 terms to K(Cij), methodcc=6,  factor=1.0

 ITER.      SQ.NORM     CORR.ENERGY   TOTAL ENERGY   ENERGY CHANGE        DEN1      VAR(S)    VAR(P)  DIIS     TIME
   1      1.14106986    -0.59454217  -188.31483362     0.01789166     0.04082557  0.65D-02  0.46D-02  1  1     2.35
   2      1.15207680    -0.59064436  -188.31093581     0.00389781    -0.01559527  0.93D-04  0.43D-03  2  2     2.47
   3      1.15650163    -0.59064139  -188.31093284     0.00000297    -0.00181671  0.11D-03  0.23D-04  3  3     2.59
   4      1.15887752    -0.59047375  -188.31076520     0.00016763    -0.00110392  0.59D-05  0.31D-05  4  4     2.70
   5      1.15971629    -0.59043350  -188.31072495     0.00004026    -0.00028771  0.35D-06  0.21D-06  5  5     2.82
   6      1.15982632    -0.59041507  -188.31070652     0.00001843    -0.00000006  0.24D-07  0.19D-07  6  6     2.94
   7      1.15984562    -0.59041340  -188.31070485     0.00000167    -0.00000422  0.16D-08  0.29D-08  6  2     3.05
   8      1.15984365    -0.59041359  -188.31070504    -0.00000019     0.00000221  0.25D-09  0.20D-09  6  1     3.17
   9      1.15984390    -0.59041355  -188.31070500     0.00000004     0.00000046  0.16D-10  0.16D-10  6  4     3.29

 Norm of t1 vector:      0.09976180      S-energy:    -0.00000001      T1 diagnostic:  0.01763556
                                                                       D1 diagnostic:  0.04496010

 Adding energy correction from Wij-K(Fij), methodcc=6  factor=1.0
 
  CCSD correlation energy              -0.590413550665
  MP2-F12 correction (uncoupled)       -0.064411865426
  C*T doubles correction               -0.001040291623
  f12b correction                       0.010654989969


 Total CPU time for triples:      0.82 sec


 RESULTS
 =======

  Reference energy                   -187.708945340755
  F12 singles correction               -0.011346109421

 F12 singles corrections added to reference energy

  New reference energy               -187.720291450176

  F12a singlet correction              -0.055764112417
  F12a triplet correction              -0.009688044631
  F12a total correction                -0.065452157048

 F12a corrections for ansatz F12/3C(FIX) added to CCSD energy
 
  CCSD-F12a singlet pair energy        -0.435814412483
  CCSD-F12a triplet pair energy        -0.220051281266
  CCSD-F12a correlation energy         -0.655865707713

  Triples (T) contribution             -0.029212863300
  Total correlation energy             -0.685078571013

  CCSD-F12a total energy             -188.376157157889
  CCSD[T]-F12a energy                -188.407617779067
  CCSD-T-F12a energy                 -188.404553176481
 !CCSD(T)-F12a total energy          -188.405370021190

 F12b corrections for ansatz F12/3C(FIX) added to CCSD(T)-F12a energy

  CCSD-F12b singlet pair energy        -0.426020579111
  CCSD-F12b triplet pair energy        -0.219190124669
  CCSD-F12b correlation energy         -0.645210717744

  Triples (T) contribution             -0.029212863300
  Total correlation energy             -0.674423581044

  CCSD-F12b total energy             -188.365502167920
  CCSD[T]-F12b energy                -188.396962789098
  CCSD-T-F12b energy                 -188.393898186512
 !CCSD(T)-F12b total energy          -188.394715031220

 Timing summary (sec):

 STEP                 CPU(USER)    SYS     CPU(TOT)    WALL
 Transformation          0.16      0.03      0.19      0.19
 CCSD iterations         1.09      0.10      1.19      1.19
 Triples                 0.82      0.04      0.86      0.85
 MP2-F12                 2.04      0.20      2.24      2.24
 F12b energy             0.08      0.00      0.08      0.08

 Program statistics:

 Available memory in ccsd:                99999464
 Min. memory needed in ccsd:                416499
 Max. memory used in ccsd:                  529280
 Max. memory used in cckext:                522039 (10 integral passes)



 **********************************************************************************************************************************
 DATASETS  * FILE   NREC   LENGTH (MB)   RECORD NAMES
              1      20       22.10       500      610      700      900      950      970     1000      129      960     1100   
                                          VAR    BASINP    GEOM    SYMINP    ZMAT    AOBASIS   BASIS     P2S    ABASIS      S 
                                         1400     1410     1200     1210     1080     1600     1650     1700      960(1)  1380   
                                           T        V       H0       H01     AOSYM     SMH    MOLCAS    OPER    ABASIS    JKOP   

              2       5        0.54       700     1000     2100     7360     7350   
                                         GEOM     BASIS     RHF    F12ABS    EF12   

 PROGRAMS   *        TOTAL   CCSD(T)        HF       INT
 CPU TIMES  *         5.46      4.20      0.17      1.01
 REAL TIME  *         6.02 SEC
 DISK USED  *       243.16 MB      
 SF USED    *       260.92 MB      
 GA USED    *         2.40 MB       (max)       0.00 MB       (current)
 **********************************************************************************************************************************

     CCSD(T)-F12        HF-SCF  
   -188.39471503   -187.70894534
 **********************************************************************************************************************************
 Variable memory released
