
 Primary working directories    : /scratch/kee
 Secondary working directories  : /scratch/kee
 Wavefunction directory         : /home/kee/wfu/
 Main file repository           : /scratch/kee/

 ARCHNAME  : Linux/x86_64
 FC        : /opt/intel/composer_xe_2015.0.090/bin/intel64/ifort
 FCVERSION : 15.0.0
 BLASLIB   : -L/opt/intel/mkl/lib/intel64 -lmkl_intel_ilp64 -lmkl_sequential -lmkl_core
 id        : emory

 Nodes     nprocs
 node22       3
 Number of processes for MPI-2 version of Molpro:   nprocs(total)=    4   nprocs(compute)=    3   nprocs(helper)=    1
 ga_uses_ma=false, calling ma_init with nominal heap.
 GA-space will be limited to   8.0 MW (determined by -G option)

 Using customized tuning parameters: mindgm=7; mindgv=32; mindgc=1; mindgr=1; noblas=0; mincuda=1000; minvec=7
 default implementation of scratch files=sf  

 ***,co2h2o
 memory,100,m
 basis avtz
 geomtype = xyz
 geometry = {
 6
    -264.76489694
 O     0.82869278    1.16169550    0.00000000
 O     0.82658011   -1.16233555    0.00000000
 O    -7.94123414    0.00313144    0.00000000
 H    -8.52486715    0.76372609    0.00000000
 H    -8.52459904   -0.75767048    0.00000000
 C     0.80876519   -0.00029961    0.00000000
 }
 hf
 ccsd(t)-f12
 ---

 Variables initialized (665), CPU time= 0.01 sec
 Commands  initialized (462), CPU time= 0.01 sec, 486 directives.
 Default parameters read. Elapsed time= 0.06 sec

 Checking input...
 Passed
1


                                         ***  PROGRAM SYSTEM MOLPRO  ***
                         Copyright, University College Cardiff Consultants Limited, 2008

                                    Version 2010.1 linked 9 Dec 2014 15:06:28 


 **********************************************************************************************************************************
 LABEL *   co2h2o                                                                        
 Linux-2.6.32-504.el6.x86_64/node22(x86_64) 64 bit mpp version                           DATE: 06-Dec-16          TIME: 23:42:53  
 **********************************************************************************************************************************

 Patch level:      19
 **********************************************************************************************************************************

 Variable memory set to  100000000 words,  buffer space   230000 words

 SETTING BASIS          =    AVTZ
 SETTING GEOMTYPE       =    XYZ

Geometry recognized as XYZ



 Recomputing integrals since basis changed


 Using spherical harmonics

 Library entry O      S aug-cc-pVTZ          selected for orbital group  1
 Library entry O      P aug-cc-pVTZ          selected for orbital group  1
 Library entry O      D aug-cc-pVTZ          selected for orbital group  1
 Library entry O      F aug-cc-pVTZ          selected for orbital group  1
 Library entry H      S aug-cc-pVTZ          selected for orbital group  2
 Library entry H      P aug-cc-pVTZ          selected for orbital group  2
 Library entry H      D aug-cc-pVTZ          selected for orbital group  2
 Library entry C      S aug-cc-pVTZ          selected for orbital group  3
 Library entry C      P aug-cc-pVTZ          selected for orbital group  3
 Library entry C      D aug-cc-pVTZ          selected for orbital group  3
 Library entry C      F aug-cc-pVTZ          selected for orbital group  3

1PROGRAM * SEWARD (Integral evaluation for generally contracted gaussian basis sets)     Author: Roland Lindh, 1990

 Geometry written to block  1 of record 700


 Point group  Cs  



 ATOMIC COORDINATES

 NR  ATOM    CHARGE       X              Y              Z

   1  O       8.00    1.566002401    2.195286343    0.000000000
   2  O       8.00    1.562010034   -2.196495862    0.000000000
   3  O       8.00  -15.006757670    0.005917564    0.000000000
   4  H       1.00  -16.109664220    1.443233150    0.000000000
   5  H       1.00  -16.109157566   -1.431789705    0.000000000
   6  C       6.00    1.528344714   -0.000566181    0.000000000

 Bond lengths in Bohr (Angstrom)

 1-6  2.196175405  2-6  2.196187724  3-4  1.811706088  3-5  1.811708509
     (1.162165971)     (1.162172490)     (0.958713571)     (0.958714852)

 Bond angles

  1-6-2  178.13918425   4-3-5  105.01947441

 NUCLEAR CHARGE:                   32
 NUMBER OF PRIMITIVE AOS:         322
 NUMBER OF SYMMETRY AOS:          282
 NUMBER OF CONTRACTIONS:          230   ( 152A'  +  78A"  )
 NUMBER OF CORE ORBITALS:           4   (   4A'  +   0A"  )
 NUMBER OF VALENCE ORBITALS:       18   (  14A'  +   4A"  )


 NUCLEAR REPULSION ENERGY   80.49395118


 Eigenvalues of metric

         1 0.349E-03 0.377E-03 0.393E-03 0.421E-03 0.902E-03 0.922E-03 0.167E-02 0.175E-02
         2 0.318E-02 0.348E-02 0.595E-02 0.124E-01 0.136E-01 0.296E-01 0.297E-01 0.319E-01


 Contracted 2-electron integrals neglected if value below      1.0D-11
 AO integral compression algorithm  1   Integral accuracy      1.0D-11

     288.358 MB (compressed) written to integral file ( 24.7%)

     Node minimum: 92.537 MB, node maximum: 98.304 MB


 NUMBER OF SORTED TWO-ELECTRON INTEGRALS:   59950380.     BUFFER LENGTH:  32768
 NUMBER OF SEGMENTS:   4  SEGMENT LENGTH:   15995235      RECORD LENGTH: 524288

 Memory used in sort:      16.55 MW

 SORT1 READ   146349097. AND WROTE    19864075. INTEGRALS IN     59 RECORDS. CPU TIME:     1.65 SEC, REAL TIME:     1.90 SEC
 SORT2 READ    59526319. AND WROTE   179836431. INTEGRALS IN   1125 RECORDS. CPU TIME:     0.69 SEC, REAL TIME:     0.91 SEC

 Node minimum:    59940574.  Node maximum:    59950380. integrals

 OPERATOR DM      FOR CENTER  0  COORDINATES:    0.000000    0.000000    0.000000


 **********************************************************************************************************************************
 DATASETS  * FILE   NREC   LENGTH (MB)   RECORD NAMES
              1      18        3.74       500      610      700      900      950      970     1000      129      960     1100   
                                          VAR    BASINP    GEOM    SYMINP    ZMAT    AOBASIS   BASIS     P2S    ABASIS      S 
                                         1400     1410     1200     1210     1080     1600     1650     1700   
                                           T        V       H0       H01     AOSYM     SMH    MOLCAS    OPER   

 PROGRAMS   *        TOTAL       INT
 CPU TIMES  *         5.03      4.90
 REAL TIME  *         5.63 SEC
 DISK USED  *       998.99 MB      
 GA USED    *         0.00 MB       (max)       0.00 MB       (current)
 **********************************************************************************************************************************

1PROGRAM * RHF-SCF (CLOSED SHELL)       Authors: W. Meyer, H.-J. Werner


 NUMBER OF ELECTRONS:      16+   16-
 CONVERGENCE THRESHOLDS:    1.00E-05 (Density)    1.00E-07 (Energy)
 MAX. NUMBER OF ITERATIONS:       60
 INTERPOLATION TYPE:            DIIS
 INTERPOLATION STEPS:              2 (START)      1 (STEP)
 LEVEL SHIFTS:                  0.00 (CLOSED)  0.00 (OPEN) 



 Orbital guess generated from atomic densities. Full valence occupancy:   18   4

 Molecular orbital dump at record        2100.2

 Initial alpha occupancy:  13   3
 Initial beta  occupancy:  13   3
 Wave function symmetry:    1

 ITERATION    DDIFF          GRAD             ENERGY        2-EL.EN.            DIPOLE MOMENTS         DIIS
    1      0.000D+00      0.000D+00      -263.66038108    356.559623   -1.18419   -0.00012    0.00000    0
    2      0.000D+00      0.630D-02      -263.72563392    351.978200   -0.68485   -0.00010    0.00000    1
    3      0.101D-01      0.428D-02      -263.76895161    354.540694   -0.80945   -0.00009    0.00000    2
    4      0.415D-02      0.402D-03      -263.76944671    354.328349   -0.81282   -0.00010    0.00000    3
    5      0.485D-03      0.117D-03      -263.76950470    354.330788   -0.80739   -0.00009    0.00000    4
    6      0.181D-03      0.472D-04      -263.76951186    354.345193   -0.80806   -0.00009    0.00000    5
    7      0.603D-04      0.116D-04      -263.76951258    354.336859   -0.80761   -0.00009    0.00000    6
    8      0.197D-04      0.254D-05      -263.76951263    354.338158   -0.80762   -0.00009    0.00000    7
    9      0.541D-05      0.852D-06      -263.76951263    354.337967   -0.80759   -0.00009    0.00000    0

 Final occupancy:  13   3

 !RHF STATE 1.1 Energy               -263.769512634610
 Nuclear energy                        80.49395118
 One-electron energy                 -521.43244731
 Two-electron energy                  177.16898350
 Virial quotient                       -1.00182868
 !RHF STATE 1.1 Dipole moment          -0.80758771    -0.00009343     0.00000000
 Dipole moment /Debye                  -2.05254878    -0.00023746     0.00000000

 Orbital energies:

         1.1          2.1          3.1          4.1          5.1          6.1          7.1          8.1          9.1         10.1
    -20.650741   -20.650696   -20.567723   -11.459516    -1.528404    -1.475304    -1.352970    -0.798635    -0.740887    -0.718506

        11.1         12.1         13.1         14.1         15.1
     -0.712435    -0.584198    -0.542063     0.028547     0.047275

         1.2          2.2          3.2          4.2          5.2
     -0.712471    -0.542100    -0.510590     0.075394     0.157930


 **********************************************************************************************************************************
 DATASETS  * FILE   NREC   LENGTH (MB)   RECORD NAMES
              1      18        3.76       500      610      700      900      950      970     1000      129      960     1100   
                                          VAR    BASINP    GEOM    SYMINP    ZMAT    AOBASIS   BASIS     P2S    ABASIS      S 
                                         1400     1410     1200     1210     1080     1600     1650     1700   
                                           T        V       H0       H01     AOSYM     SMH    MOLCAS    OPER   

              2       3        0.96       700     1000     2100   
                                         GEOM     BASIS     RHF  

 PROGRAMS   *        TOTAL        HF       INT
 CPU TIMES  *         8.37      3.35      4.90
 REAL TIME  *         9.12 SEC
 DISK USED  *         1.02 GB      
 SF USED    *         0.12 MB      
 GA USED    *         0.00 MB       (max)       0.00 MB       (current)
 **********************************************************************************************************************************


1PROGRAM * CCSD (Closed-shell coupled cluster)     Authors: C. Hampel, H.-J. Werner, 1991, M. Deegan, P.J. Knowles, 1992

                                  CCSD-F12 implementation by  H.-J. Werner, 2007

                   Density fitting integral evaluation by F.R. Manby, 2003,2007, G. Knizia, 2010

 Basis set CC-PVTZ/JKFIT generated.      Number of basis functions:   376 
 Basis set AUG-CC-PVTZ/MP2FIT generated. Number of basis functions:   516 

 Convergence thresholds:  THRVAR = 1.00D-08  THRDEN = 1.00D-06

 CCSD(T)     terms to be evaluated (factor= 1.000)


 Number of core orbitals:           4 (   4   0 )
 Number of closed-shell orbitals:  12 (   9   3 )
 Number of external orbitals:     214 ( 139  75 )

 Molecular orbitals read from record     2100.2  Type=RHF/CANONICAL (state 1.1)

 MP2-F12 correlation treatment (H.-J. Werner, 2006)
 --------------------------------------------------

 Using MP2-F12 with ansatz 3C(FIX)

 Using projected zeroth-order Hamiltonian (+Z)

 FOCKRIB=T FOCKRIC=T FOCKRIP=T CABSP=T CABSA=T CABSK=T CABSF=T GBC=F EBC=F DMAT=T NOFIK=T NOPAO=1 SOLVE=-1  USEPAO=0
 EXCH_A= T EXCH_B= F EXCH_C= F EXCH_P= F
 
 Geminal basis:    OPTFULL  GEM_TYPE=SLATER  BETA=1.0  NGEM=6

 Optimizing Gaussian exponents for each gem_beta

 Geminal optimization for beta= 1.0000
 Weight function:   m=0, omega= 1.4646

 Augmented Hessian optimization of geminal fit. Trust ratio= 0.40000
 Convergence reached after   2 iterations. Final gradient= 8.24D-16, Step= 4.32D-06, Delta= 1.28D-09
 
 Alpha:                 0.19532     0.81920     2.85917     9.50073    35.69989   197.79328
 Coeff:                 0.27070     0.30552     0.18297     0.10986     0.06810     0.04224
 

 Symmetry turned off. Reference energy:       -263.769512634610

 All pairs explicitly correlated. Number of r12-pairs:           78
 
 AO(A)-basis ORBITAL           loaded. Number of functions:     230
 RI(R)-basis CC-PVTZ/JKFIT     loaded. Number of functions:     376
 DF-basis CC-PVTZ/JKFIT        loaded. Number of functions:     376

 Screening thresholds:   THRAO=  1.00D-10  THRMO=  1.00D-09  THRPROD=  1.00D-09
                         THRSW=  1.00D-05  THROV=  1.00D-12  THRF12=   1.00D-08

 CPU time for Fock operators                      0.94 sec
 
 Construction of ABS:
 Smallest eigenvalue of S          2.57E-04  (threshold= 1.00E-08)
 Ratio eigmin/eigmax               1.83E-06  (threshold= 1.00E-09)
 Smallest eigenvalue of S kept     2.57E-04  (threshold= 2.57E-04, 0 functions deleted, 376 kept)
 
 Construction of CABS:
 Smallest eigenvalue of S          2.30E-08  (threshold= 1.00E-08)
 Ratio eigmin/eigmax               2.30E-08  (threshold= 1.00E-09)
 Smallest eigenvalue of S kept     2.30E-08  (threshold= 2.30E-08, 0 functions deleted, 376 kept)
 
 CPU time for CABS singles                        0.17 sec

 CABS-singles contribution of  -0.01592429 patched into reference energy.
 New reference energy        -263.78543692
 
 AO(A)-basis ORBITAL           loaded. Number of functions:     230
 RI(R)-basis CC-PVTZ/JKFIT     loaded. Number of functions:     376
 DF-basis AUG-CC-PVTZ/MP2FIT   loaded. Number of functions:     516

 Screening thresholds:   THRAO=  1.00D-10  THRMO=  1.00D-09  THRPROD=  1.00D-09
                         THRSW=  1.00D-05  THROV=  1.00D-12  THRF12=   1.00D-08

 CPU time for 3-index integral evaluation         2.01 sec
 CPU time for first  half transformation          0.24 sec ( 9135.5 MFLOP/sec)
 CPU time for second half transformation          0.04 sec ( 2280.8 MFLOP/sec)
 CPU time for sorting                             0.11 sec
 CPU time for fitting                             0.06 sec (23359.5 MFLOP/sec)
 CPU time for tilde quantities                    0.15 sec (12325.9 MFLOP/sec)
 CPU time for assembly                            0.88 sec (27904.9 MFLOP/sec)
 CPU time for tranop_f12                          1.01 sec (31074.8 MFLOP/sec)
 CPU time for f12 integrals (total)               6.79 sec
 F12-matrices built in  3 passes.
 F12-matrices built in  3 passes.
 F12-matrices built in  3 passes.
 F12-matrices built in  3 passes.
 FC-matrix built in  3 passes.
 CPU time for f12 matrices (total)                0.60 sec

 Diagonal F12 approximation with fixed coefficients:  TSING= 0.500,  TTRIP= 0.250 (scaled by -1/beta)

 DF-MP2-F12 energy corrections:
 ------------------------------
 Approx.                                    Singlet             Triplet             Total
 DF-MP2-F12/3*C(DX,FIX)                -0.097454164591     -0.016934425020     -0.114388589612
 DF-MP2-F12/3*C(FIX)                   -0.079869989809     -0.013396478828     -0.093266468637
 DF-MP2-F12/3C(FIX)                    -0.080230758194     -0.013419599022     -0.093650357216

 DF-MP2-F12 correlation energies:
 --------------------------------
 Approx.                                    Singlet             Triplet             Ecorr            Total Energy
 DF-MP2                                -0.537720632914     -0.343065710276     -0.880786343190   -264.666223263611
 DF-MP2-F12/3*C(DX,FIX)                -0.635174797505     -0.360000135296     -0.995174932801   -264.780611853223
 DF-MP2-F12/3*C(FIX)                   -0.617590622723     -0.356462189104     -0.974052811827   -264.759489732248
 DF-MP2-F12/3C(FIX)                    -0.617951391108     -0.356485309298     -0.974436700406   -264.759873620828

 SCS-DF-MP2 energies (F_SING= 1.20000  F_TRIP= 0.62222  F_PARALLEL= 0.33333):
 ----------------------------------------------------------------------------
 SCS-DF-MP2                            -0.858727868113   -264.644164788534
 SCS-DF-MP2-F12/3*C(DX,FIX)            -0.986209841191   -264.771646761612
 SCS-DF-MP2-F12/3*C(FIX)               -0.962907442710   -264.748344363132
 SCS-DF-MP2-F12/3C(FIX)                -0.963354750671   -264.748791671092

 Symmetry restored.
 Symmetry transformation completed.

 Number of N-1 electron functions:              12
 Number of N-2 electron functions:              78
 Number of singly external CSFs:              1476
 Number of doubly external CSFs:           1686804
 Total number of CSFs:                     1688281

 Pair and operator lists are different

 Length of J-op  integral file:             466.42 MB
 Length of K-op  integral file:             526.62 MB
 Length of 3-ext integral record:             0.00 MB

 Memory could be reduced to 76.61 Mwords without degradation in triples

 Integral transformation finished. Total CPU:   5.92 sec, npass=  1  Memory used:  24.61 MW

 Reference energy:                   -263.78543692

 Adding F12 terms to K(Cij), methodcc=6,  factor=1.0

 ITER.      SQ.NORM     CORR.ENERGY   TOTAL ENERGY   ENERGY CHANGE        DEN1      VAR(S)    VAR(P)  DIIS     TIME
   1      1.20214365    -0.86274011  -264.64817703     0.01806272     0.04669303  0.72D-02  0.56D-02  1  1    17.51
   2      1.21645530    -0.85851351  -264.64395043     0.00422660    -0.02015138  0.86D-04  0.59D-03  2  2    20.30
   3      1.22181529    -0.85860966  -264.64404658    -0.00009615    -0.00236384  0.13D-03  0.32D-04  3  3    23.19
   4      1.22461684    -0.85848183  -264.64391875     0.00012784    -0.00141119  0.76D-05  0.41D-05  4  4    26.80
   5      1.22564676    -0.85844413  -264.64388105     0.00003770    -0.00036636  0.56D-06  0.29D-06  5  5    29.99
   6      1.22580893    -0.85841727  -264.64385419     0.00002686    -0.00000805  0.40D-07  0.24D-07  6  6    33.12
   7      1.22583828    -0.85841484  -264.64385176     0.00000242    -0.00000622  0.25D-08  0.40D-08  6  4    36.41
   8      1.22583858    -0.85841436  -264.64385128     0.00000049     0.00000195  0.39D-09  0.27D-09  6  1    39.46
   9      1.22583919    -0.85841442  -264.64385134    -0.00000007     0.00000056  0.26D-10  0.21D-10  6  2    42.68

 Norm of t1 vector:      0.10595581      S-energy:    -0.00000002      T1 diagnostic:  0.01529340
                                                                       D1 diagnostic:  0.04494722

 Adding energy correction from Wij-K(Fij), methodcc=6  factor=1.0
 
  CCSD correlation energy              -0.858414421971
  MP2-F12 correction (uncoupled)       -0.092493409078
  C*T doubles correction               -0.001475668590
  f12b correction                       0.015407280238


 Total CPU time for triples:     79.14 sec


 RESULTS
 =======

  Reference energy                   -263.769512634609
  F12 singles correction               -0.015924285812

 F12 singles corrections added to reference energy

  New reference energy               -263.785436920421

  F12a singlet correction              -0.080430731236
  F12a triplet correction              -0.013538346431
  F12a total correction                -0.093969077667

 F12a corrections for ansatz F12/3C(FIX) added to CCSD energy
 
  CCSD-F12a singlet pair energy        -0.641888263723
  CCSD-F12a triplet pair energy        -0.310495211342
  CCSD-F12a correlation energy         -0.952383499638

  Triples (T) contribution             -0.037637526034
  Total correlation energy             -0.990021025672

  CCSD-F12a total energy             -264.737820420059
  CCSD[T]-F12a energy                -264.778001375703
  CCSD-T-F12a energy                 -264.774520458709
 !CCSD(T)-F12a total energy          -264.775457946093

 F12b corrections for ansatz F12/3C(FIX) added to CCSD(T)-F12a energy

  CCSD-F12b singlet pair energy        -0.627704344306
  CCSD-F12b triplet pair energy        -0.309271850521
  CCSD-F12b correlation energy         -0.936976219400

  Triples (T) contribution             -0.037637526034
  Total correlation energy             -0.974613745434

  CCSD-F12b total energy             -264.722413139821
  CCSD[T]-F12b energy                -264.762594095466
  CCSD-T-F12b energy                 -264.759113178471
 !CCSD(T)-F12b total energy          -264.760050665855

 Timing summary (sec):

 STEP                 CPU(USER)    SYS     CPU(TOT)    WALL
 Transformation          5.97      0.56      6.53      6.52
 CCSD iterations        27.77      1.53     29.30     29.77
 Triples                79.14      1.55     80.69     80.66
 MP2-F12                 8.96      1.27     10.23     10.24
 F12b energy             1.74      0.02      1.76      1.76

 Program statistics:

 Available memory in ccsd:                99998934
 Min. memory needed in ccsd:               4458306
 Max. memory used in ccsd:                 5958390
 Max. memory used in cckext:               6352469 (10 integral passes)



 **********************************************************************************************************************************
 DATASETS  * FILE   NREC   LENGTH (MB)   RECORD NAMES
              1      20      269.66       500      610      700      900      950      970     1000      129      960     1100   
                                          VAR    BASINP    GEOM    SYMINP    ZMAT    AOBASIS   BASIS     P2S    ABASIS      S 
                                         1400     1410     1200     1210     1080     1600     1650     1700      960(1)  1380   
                                           T        V       H0       H01     AOSYM     SMH    MOLCAS    OPER    ABASIS    JKOP   

              2       5        1.55       700     1000     2100     7360     7350   
                                         GEOM     BASIS     RHF    F12ABS    EF12   

 PROGRAMS   *        TOTAL   CCSD(T)        HF       INT
 CPU TIMES  *       131.97    123.60      3.35      4.90
 REAL TIME  *       138.41 SEC
 DISK USED  *         1.46 GB      
 SF USED    *         1.53 GB      
 GA USED    *         2.40 MB       (max)       0.00 MB       (current)
 **********************************************************************************************************************************

     CCSD(T)-F12        HF-SCF  
   -264.76005067   -263.76951263
 **********************************************************************************************************************************
 Variable memory released
