
 Primary working directories    : /scratch/kee
 Secondary working directories  : /scratch/kee
 Wavefunction directory         : /home/kee/wfu/
 Main file repository           : /scratch/kee/

 ARCHNAME  : Linux/x86_64
 FC        : /opt/intel/composer_xe_2015.0.090/bin/intel64/ifort
 FCVERSION : 15.0.0
 BLASLIB   : -L/opt/intel/mkl/lib/intel64 -lmkl_intel_ilp64 -lmkl_sequential -lmkl_core
 id        : emory

 Nodes     nprocs
 node19       3
 Number of processes for MPI-2 version of Molpro:   nprocs(total)=    4   nprocs(compute)=    3   nprocs(helper)=    1
 ga_uses_ma=false, calling ma_init with nominal heap.
 GA-space will be limited to   8.0 MW (determined by -G option)

 Using customized tuning parameters: mindgm=7; mindgv=32; mindgc=1; mindgr=1; noblas=0; mincuda=1000; minvec=7
 default implementation of scratch files=sf  

 ***,co2h2o
 memory,100,m
 basis avtz
 geomtype = xyz
 geometry = {
 6
       0.00000000
 O     0.00032100    1.15989800    0.00000000
 O     0.00041400   -1.15989400    0.00000000
 O     5.45845224    3.99663068    1.43358956
 H     6.25000676    4.30558633    0.99124092
 H     5.77243806    3.51800293    2.20171179
 C     0.01953800    0.00000300    0.00000000
 }
 hf
 ccsd(t)-f12
 ---

 Variables initialized (665), CPU time= 0.00 sec
 Commands  initialized (462), CPU time= 0.01 sec, 486 directives.
 Default parameters read. Elapsed time= 0.03 sec

 Checking input...
 Passed
1


                                         ***  PROGRAM SYSTEM MOLPRO  ***
                         Copyright, University College Cardiff Consultants Limited, 2008

                                    Version 2010.1 linked 9 Dec 2014 15:06:28 


 **********************************************************************************************************************************
 LABEL *   co2h2o                                                                        
 Linux-2.6.32-504.el6.x86_64/node19(x86_64) 64 bit mpp version                           DATE: 15-Dec-16          TIME: 01:16:46  
 **********************************************************************************************************************************

 Patch level:      19
 **********************************************************************************************************************************

 Variable memory set to  100000000 words,  buffer space   230000 words

 SETTING BASIS          =    AVTZ
 SETTING GEOMTYPE       =    XYZ

Geometry recognized as XYZ



 Recomputing integrals since basis changed


 Using spherical harmonics

 Library entry O      S aug-cc-pVTZ          selected for orbital group  1
 Library entry O      P aug-cc-pVTZ          selected for orbital group  1
 Library entry O      D aug-cc-pVTZ          selected for orbital group  1
 Library entry O      F aug-cc-pVTZ          selected for orbital group  1
 Library entry H      S aug-cc-pVTZ          selected for orbital group  2
 Library entry H      P aug-cc-pVTZ          selected for orbital group  2
 Library entry H      D aug-cc-pVTZ          selected for orbital group  2
 Library entry C      S aug-cc-pVTZ          selected for orbital group  3
 Library entry C      P aug-cc-pVTZ          selected for orbital group  3
 Library entry C      D aug-cc-pVTZ          selected for orbital group  3
 Library entry C      F aug-cc-pVTZ          selected for orbital group  3

1PROGRAM * SEWARD (Integral evaluation for generally contracted gaussian basis sets)     Author: Roland Lindh, 1990

 Geometry written to block  1 of record 700


 Point group  C1  



 ATOMIC COORDINATES

 NR  ATOM    CHARGE       X              Y              Z

   1  O       8.00    0.000606602    2.191889560    0.000000000
   2  O       8.00    0.000782347   -2.191882001    0.000000000
   3  O       8.00   10.314979835    7.552537434    2.709091653
   4  H       1.00   11.810801096    8.136378999    1.873173869
   5  H       1.00   10.908327044    6.648062067    4.160632303
   6  C       6.00    0.036921469    0.000005669    0.000000000

 Bond lengths in Bohr (Angstrom)

 1-6  2.192184701  2-6  2.192185575  3-4  1.810279194  3-5  1.810278116
     (1.160054182)     (1.160054644)     (0.957958491)     (0.957957921)

 Bond angles

  1-6-2  178.10622893   4-3-5  105.10354878

 NUCLEAR CHARGE:                   32
 NUMBER OF PRIMITIVE AOS:         322
 NUMBER OF SYMMETRY AOS:          282
 NUMBER OF CONTRACTIONS:          230   ( 230A   )
 NUMBER OF CORE ORBITALS:           4   (   4A   )
 NUMBER OF VALENCE ORBITALS:       18   (  18A   )


 NUCLEAR REPULSION ENERGY   84.20643672


 Eigenvalues of metric

         1 0.343E-03 0.377E-03 0.390E-03 0.405E-03 0.895E-03 0.914E-03 0.165E-02 0.173E-02


 Contracted 2-electron integrals neglected if value below      1.0D-11
 AO integral compression algorithm  1   Integral accuracy      1.0D-11

     590.348 MB (compressed) written to integral file ( 20.4%)

     Node minimum: 189.006 MB, node maximum: 204.210 MB


 NUMBER OF SORTED TWO-ELECTRON INTEGRALS:  117629820.     BUFFER LENGTH:  32768
 NUMBER OF SEGMENTS:   8  SEGMENT LENGTH:   15997437      RECORD LENGTH: 524288

 Memory used in sort:      16.55 MW

 SORT1 READ   360874736. AND WROTE    44208887. INTEGRALS IN    128 RECORDS. CPU TIME:     3.24 SEC, REAL TIME:     3.69 SEC
 SORT2 READ   131900143. AND WROTE   352862895. INTEGRALS IN   2337 RECORDS. CPU TIME:     1.12 SEC, REAL TIME:     1.48 SEC

 Node minimum:   117612110.  Node maximum:   117629820. integrals

 OPERATOR DM      FOR CENTER  0  COORDINATES:    0.000000    0.000000    0.000000


 **********************************************************************************************************************************
 DATASETS  * FILE   NREC   LENGTH (MB)   RECORD NAMES
              1      18        4.62       500      610      700      900      950      970     1000      129      960     1100   
                                          VAR    BASINP    GEOM    SYMINP    ZMAT    AOBASIS   BASIS     P2S    ABASIS      S 
                                         1400     1410     1200     1210     1080     1600     1650     1700   
                                           T        V       H0       H01     AOSYM     SMH    MOLCAS    OPER   

 PROGRAMS   *        TOTAL       INT
 CPU TIMES  *         7.62      7.55
 REAL TIME  *         8.93 SEC
 DISK USED  *         2.11 GB      
 GA USED    *         0.00 MB       (max)       0.00 MB       (current)
 **********************************************************************************************************************************

1PROGRAM * RHF-SCF (CLOSED SHELL)       Authors: W. Meyer, H.-J. Werner


 NUMBER OF ELECTRONS:      16+   16-    SPACE SYMMETRY=1    SPIN SYMMETRY=Singlet 
 CONVERGENCE THRESHOLDS:    1.00E-05 (Density)    1.00E-07 (Energy)
 MAX. NUMBER OF ITERATIONS:       60
 INTERPOLATION TYPE:            DIIS
 INTERPOLATION STEPS:              2 (START)      1 (STEP)
 LEVEL SHIFTS:                  0.00 (CLOSED)  0.00 (OPEN) 



 Orbital guess generated from atomic densities. Full valence occupancy:   22

 Molecular orbital dump at record        2100.2

 ITERATION    DDIFF          GRAD             ENERGY        2-EL.EN.            DIPOLE MOMENTS         DIIS
    1      0.000D+00      0.000D+00      -263.66119616    364.039871    1.12574   -0.16406    0.31509    0
    2      0.000D+00      0.468D-02      -263.72641754    359.429112    0.64875   -0.07672    0.18702    1
    3      0.749D-02      0.317D-02      -263.76934807    361.994454    0.76871   -0.10259    0.21739    2
    4      0.308D-02      0.296D-03      -263.76983648    361.781179    0.77168   -0.10056    0.21860    3
    5      0.356D-03      0.859D-04      -263.76989295    361.784888    0.76664   -0.10159    0.21709    4
    6      0.132D-03      0.346D-04      -263.76989986    361.798613    0.76724   -0.10055    0.21731    5
    7      0.435D-04      0.863D-05      -263.76990057    361.790518    0.76683   -0.10103    0.21718    6
    8      0.142D-04      0.213D-05      -263.76990062    361.791508    0.76683   -0.10066    0.21718    7
    9      0.390D-05      0.137D-05      -263.76990062    361.791588    0.76681   -0.10097    0.21718    0

 Final occupancy:  16

 !RHF STATE 1.1 Energy               -263.769900619985
 Nuclear energy                        84.20643672
 One-electron energy                 -528.87213154
 Two-electron energy                  180.89579419
 Virial quotient                       -1.00173691
 !RHF STATE 1.1 Dipole moment           0.76681004    -0.10097200     0.21717644
 Dipole moment /Debye                   1.94890906    -0.25662841     0.55197129

 Orbital energies:

         1.1          2.1          3.1          4.1          5.1          6.1          7.1          8.1          9.1         10.1
    -20.649660   -20.649175   -20.567287   -11.457515    -1.528825    -1.475693    -1.353034    -0.797578    -0.740434    -0.718822

        11.1         12.1         13.1         14.1         15.1         16.1         17.1         18.1
     -0.712638    -0.712598    -0.583837    -0.541438    -0.541389    -0.510348     0.028435     0.045673


 **********************************************************************************************************************************
 DATASETS  * FILE   NREC   LENGTH (MB)   RECORD NAMES
              1      18        4.62       500      610      700      900      950      970     1000      129      960     1100   
                                          VAR    BASINP    GEOM    SYMINP    ZMAT    AOBASIS   BASIS     P2S    ABASIS      S 
                                         1400     1410     1200     1210     1080     1600     1650     1700   
                                           T        V       H0       H01     AOSYM     SMH    MOLCAS    OPER   

              2       3        1.44       700     1000     2100   
                                         GEOM     BASIS     RHF  

 PROGRAMS   *        TOTAL        HF       INT
 CPU TIMES  *        16.51      8.89      7.55
 REAL TIME  *        18.08 SEC
 DISK USED  *         2.14 GB      
 SF USED    *         0.21 MB      
 GA USED    *         0.00 MB       (max)       0.00 MB       (current)
 **********************************************************************************************************************************


1PROGRAM * CCSD (Closed-shell coupled cluster)     Authors: C. Hampel, H.-J. Werner, 1991, M. Deegan, P.J. Knowles, 1992

                                  CCSD-F12 implementation by  H.-J. Werner, 2007

                   Density fitting integral evaluation by F.R. Manby, 2003,2007, G. Knizia, 2010

 Basis set CC-PVTZ/JKFIT generated.      Number of basis functions:   376 
 Basis set AUG-CC-PVTZ/MP2FIT generated. Number of basis functions:   516 

 Convergence thresholds:  THRVAR = 1.00D-08  THRDEN = 1.00D-06

 CCSD(T)     terms to be evaluated (factor= 1.000)


 Number of core orbitals:           4 (   4 )
 Number of closed-shell orbitals:  12 (  12 )
 Number of external orbitals:     214 ( 214 )

 Molecular orbitals read from record     2100.2  Type=RHF/CANONICAL (state 1.1)

 MP2-F12 correlation treatment (H.-J. Werner, 2006)
 --------------------------------------------------

 Using MP2-F12 with ansatz 3C(FIX)

 Using projected zeroth-order Hamiltonian (+Z)

 FOCKRIB=T FOCKRIC=T FOCKRIP=T CABSP=T CABSA=T CABSK=T CABSF=T GBC=F EBC=F DMAT=T NOFIK=T NOPAO=1 SOLVE=-1  USEPAO=0
 EXCH_A= T EXCH_B= F EXCH_C= F EXCH_P= F
 
 Geminal basis:    OPTFULL  GEM_TYPE=SLATER  BETA=1.0  NGEM=6

 Optimizing Gaussian exponents for each gem_beta

 Geminal optimization for beta= 1.0000
 Weight function:   m=0, omega= 1.4646

 Augmented Hessian optimization of geminal fit. Trust ratio= 0.40000
 Convergence reached after   2 iterations. Final gradient= 8.24D-16, Step= 4.32D-06, Delta= 1.28D-09
 
 Alpha:                 0.19532     0.81920     2.85917     9.50073    35.69989   197.79328
 Coeff:                 0.27070     0.30552     0.18297     0.10986     0.06810     0.04224
 

 All pairs explicitly correlated. Number of r12-pairs:           78
 
 AO(A)-basis ORBITAL           loaded. Number of functions:     230
 RI(R)-basis CC-PVTZ/JKFIT     loaded. Number of functions:     376
 DF-basis CC-PVTZ/JKFIT        loaded. Number of functions:     376

 Screening thresholds:   THRAO=  1.00D-10  THRMO=  1.00D-09  THRPROD=  1.00D-09
                         THRSW=  1.00D-05  THROV=  1.00D-12  THRF12=   1.00D-08

 CPU time for Fock operators                      0.89 sec
 
 Construction of ABS:
 Smallest eigenvalue of S          2.57E-04  (threshold= 1.00E-08)
 Ratio eigmin/eigmax               1.83E-06  (threshold= 1.00E-09)
 Smallest eigenvalue of S kept     2.57E-04  (threshold= 2.57E-04, 0 functions deleted, 376 kept)
 
 Construction of CABS:
 Smallest eigenvalue of S          2.29E-08  (threshold= 1.00E-08)
 Ratio eigmin/eigmax               2.29E-08  (threshold= 1.00E-09)
 Smallest eigenvalue of S kept     2.29E-08  (threshold= 2.29E-08, 0 functions deleted, 376 kept)
 
 CPU time for CABS singles                        0.16 sec

 CABS-singles contribution of  -0.01596061 patched into reference energy.
 New reference energy        -263.78586123
 
 AO(A)-basis ORBITAL           loaded. Number of functions:     230
 RI(R)-basis CC-PVTZ/JKFIT     loaded. Number of functions:     376
 DF-basis AUG-CC-PVTZ/MP2FIT   loaded. Number of functions:     516

 Screening thresholds:   THRAO=  1.00D-10  THRMO=  1.00D-09  THRPROD=  1.00D-09
                         THRSW=  1.00D-05  THROV=  1.00D-12  THRF12=   1.00D-08

 CPU time for 3-index integral evaluation         1.80 sec
 CPU time for first  half transformation          0.27 sec ( 9334.4 MFLOP/sec)
 CPU time for second half transformation          0.02 sec ( 4921.7 MFLOP/sec)
 CPU time for sorting                             0.14 sec
 CPU time for fitting                             0.06 sec (23217.5 MFLOP/sec)
 CPU time for tilde quantities                    0.06 sec (30814.7 MFLOP/sec)
 CPU time for assembly                            0.76 sec (30228.1 MFLOP/sec)
 CPU time for tranop_f12                          0.87 sec (33907.7 MFLOP/sec)
 CPU time for f12 integrals (total)               6.05 sec
 F12-matrices built in  3 passes.
 F12-matrices built in  3 passes.
 F12-matrices built in  3 passes.
 F12-matrices built in  3 passes.
 FC-matrix built in  3 passes.
 CPU time for f12 matrices (total)                0.46 sec

 Diagonal F12 approximation with fixed coefficients:  TSING= 0.500,  TTRIP= 0.250 (scaled by -1/beta)

 DF-MP2-F12 energy corrections:
 ------------------------------
 Approx.                                    Singlet             Triplet             Total
 DF-MP2-F12/3*C(DX,FIX)                -0.097499978806     -0.016949934621     -0.114449913428
 DF-MP2-F12/3*C(FIX)                   -0.079900542273     -0.013407017155     -0.093307559428
 DF-MP2-F12/3C(FIX)                    -0.080259172534     -0.013430144084     -0.093689316617

 DF-MP2-F12 correlation energies:
 --------------------------------
 Approx.                                    Singlet             Triplet             Ecorr            Total Energy
 DF-MP2                                -0.537356121223     -0.342796187963     -0.880152309186   -264.666013539215
 DF-MP2-F12/3*C(DX,FIX)                -0.634856100029     -0.359746122585     -0.994602222613   -264.780463452642
 DF-MP2-F12/3*C(FIX)                   -0.617256663496     -0.356203205118     -0.973459868614   -264.759321098642
 DF-MP2-F12/3C(FIX)                    -0.617615293756     -0.356226332047     -0.973841625803   -264.759702855832

 SCS-DF-MP2 energies (F_SING= 1.20000  F_TRIP= 0.62222  F_PARALLEL= 0.33333):
 ----------------------------------------------------------------------------
 SCS-DF-MP2                            -0.858122751311   -264.643983981340
 SCS-DF-MP2-F12/3*C(DX,FIX)            -0.985669351865   -264.771530581894
 SCS-DF-MP2-F12/3*C(FIX)               -0.962345546046   -264.748206776075
 SCS-DF-MP2-F12/3C(FIX)                -0.962790292448   -264.748651522477
 Symmetry transformation completed.

 Number of N-1 electron functions:              12
 Number of N-2 electron functions:              78
 Number of singly external CSFs:              2568
 Number of doubly external CSFs:           3298596
 Total number of CSFs:                     3301165

 Pair and operator lists are different

 Length of J-op  integral file:             474.22 MB
 Length of K-op  integral file:             572.29 MB
 Length of 3-ext integral record:             0.00 MB

 For full I/O caching in triples, increase memory by 50.81 Mwords to 151.09 Mwords.

 Integral transformation finished. Total CPU:  11.85 sec, npass=  1  Memory used:  87.46 MW

 Reference energy:                   -263.78586123

 Adding F12 terms to K(Cij), methodcc=6,  factor=1.0

 ITER.      SQ.NORM     CORR.ENERGY   TOTAL ENERGY   ENERGY CHANGE        DEN1      VAR(S)    VAR(P)  DIIS     TIME
   1      1.20177442    -0.86223317  -264.64809440     0.01793551     0.04639251  0.71D-02  0.55D-02  1  1    27.35
   2      1.21600152    -0.85804792  -264.64390915     0.00418525    -0.02004882  0.85D-04  0.58D-03  2  2    34.89
   3      1.22131244    -0.85814198  -264.64400321    -0.00009406    -0.00235173  0.13D-03  0.32D-04  3  3    42.44
   4      1.22408302    -0.85801683  -264.64387806     0.00012515    -0.00140068  0.74D-05  0.40D-05  4  4    50.05
   5      1.22509667    -0.85797982  -264.64384105     0.00003701    -0.00036154  0.54D-06  0.28D-06  5  5    57.60
   6      1.22525622    -0.85795337  -264.64381460     0.00002645    -0.00000787  0.39D-07  0.23D-07  6  6    65.22
   7      1.22528505    -0.85795099  -264.64381222     0.00000238    -0.00000613  0.25D-08  0.39D-08  6  4    72.83
   8      1.22528534    -0.85795051  -264.64381174     0.00000048     0.00000191  0.38D-09  0.26D-09  6  1    80.42
   9      1.22528595    -0.85795057  -264.64381180    -0.00000007     0.00000055  0.25D-10  0.21D-10  6  2    88.03

 Norm of t1 vector:      0.10538506      S-energy:     0.00000039      T1 diagnostic:  0.01521102
                                                                       D1 diagnostic:  0.04464410

 Adding energy correction from Wij-K(Fij), methodcc=6  factor=1.0
 
  CCSD correlation energy              -0.857950574488
  MP2-F12 correction (uncoupled)       -0.092537320777
  C*T doubles correction               -0.001473686862
  f12b correction                       0.015402870570


 Total CPU time for triples:    210.58 sec


 RESULTS
 =======

  Reference energy                   -263.769900619986
  F12 singles correction               -0.015960610043

 F12 singles corrections added to reference energy

  New reference energy               -263.785861230029

  F12a singlet correction              -0.080461703151
  F12a triplet correction              -0.013549304488
  F12a total correction                -0.094011007639

 F12a corrections for ansatz F12/3C(FIX) added to CCSD energy
 
  CCSD-F12a singlet pair energy        -0.641559545619
  CCSD-F12a triplet pair energy        -0.310402429395
  CCSD-F12a correlation energy         -0.951961582127

  Triples (T) contribution             -0.037515537160
  Total correlation energy             -0.989477119286

  CCSD-F12a total energy             -264.737822812155
  CCSD[T]-F12a energy                -264.777855757806
  CCSD-T-F12a energy                 -264.774408410949
 !CCSD(T)-F12a total energy          -264.775338349315

 F12b corrections for ansatz F12/3C(FIX) added to CCSD(T)-F12a energy

  CCSD-F12b singlet pair energy        -0.627380579600
  CCSD-F12b triplet pair energy        -0.309178524844
  CCSD-F12b correlation energy         -0.936558711556

  Triples (T) contribution             -0.037515537160
  Total correlation energy             -0.974074248716

  CCSD-F12b total energy             -264.722419941585
  CCSD[T]-F12b energy                -264.762452887236
  CCSD-T-F12b energy                 -264.759005540378
 !CCSD(T)-F12b total energy          -264.759935478745

 Timing summary (sec):

 STEP                 CPU(USER)    SYS     CPU(TOT)    WALL
 Transformation         11.96      1.06     13.02     13.01
 CCSD iterations        67.95      2.78     70.73     71.16
 Triples               210.58      2.57    213.15    213.11
 MP2-F12                 8.14      1.11      9.25      9.25
 F12b energy             4.94      0.04      4.98      4.98

 Program statistics:

 Available memory in ccsd:                99998934
 Min. memory needed in ccsd:               8644845
 Max. memory used in ccsd:                11598633
 Max. memory used in cckext:               8768967 (10 integral passes)



 **********************************************************************************************************************************
 DATASETS  * FILE   NREC   LENGTH (MB)   RECORD NAMES
              1      20      527.84       500      610      700      900      950      970     1000      129      960     1100   
                                          VAR    BASINP    GEOM    SYMINP    ZMAT    AOBASIS   BASIS     P2S    ABASIS      S 
                                         1400     1410     1200     1210     1080     1600     1650     1700      960(1)  1380   
                                           T        V       H0       H01     AOSYM     SMH    MOLCAS    OPER    ABASIS    JKOP   

              2       5        2.50       700     1000     2100     7360     7350   
                                         GEOM     BASIS     RHF    F12ABS    EF12   

 PROGRAMS   *        TOTAL   CCSD(T)        HF       INT
 CPU TIMES  *       320.09    303.58      8.89      7.55
 REAL TIME  *       329.92 SEC
 DISK USED  *         3.01 GB      
 SF USED    *         1.91 GB      
 GA USED    *         2.40 MB       (max)       0.00 MB       (current)
 **********************************************************************************************************************************

     CCSD(T)-F12        HF-SCF  
   -264.75993548   -263.76990062
 **********************************************************************************************************************************
 Variable memory released
