
 Primary working directories    : /scratch/kee
 Secondary working directories  : /scratch/kee
 Wavefunction directory         : /home/kee/wfu/
 Main file repository           : /scratch/kee/

 ARCHNAME  : Linux/x86_64
 FC        : /opt/intel/composer_xe_2015.0.090/bin/intel64/ifort
 FCVERSION : 15.0.0
 BLASLIB   : -L/opt/intel/mkl/lib/intel64 -lmkl_intel_ilp64 -lmkl_sequential -lmkl_core
 id        : emory

 Nodes     nprocs
 node19       3
 Number of processes for MPI-2 version of Molpro:   nprocs(total)=    4   nprocs(compute)=    3   nprocs(helper)=    1
 ga_uses_ma=false, calling ma_init with nominal heap.
 GA-space will be limited to   8.0 MW (determined by -G option)

 Using customized tuning parameters: mindgm=7; mindgv=32; mindgc=1; mindgr=1; noblas=0; mincuda=1000; minvec=7
 default implementation of scratch files=sf  

 ***,co2h2o
 memory,100,m
 basis avtz
 geomtype = xyz
 geometry = {
 6
       0.00000000
 O     0.00032100    1.15989800    0.00000000
 O     0.00041400   -1.15989400    0.00000000
 O     5.30080256    3.88078640    1.39203623
 H     6.09235707    4.18974205    0.94968759
 H     5.61478837    3.40215865    2.16015847
 C     0.01953800    0.00000300    0.00000000
 }
 hf
 ccsd(t)-f12
 ---

 Variables initialized (665), CPU time= 0.01 sec
 Commands  initialized (462), CPU time= 0.00 sec, 486 directives.
 Default parameters read. Elapsed time= 0.03 sec

 Checking input...
 Passed
1


                                         ***  PROGRAM SYSTEM MOLPRO  ***
                         Copyright, University College Cardiff Consultants Limited, 2008

                                    Version 2010.1 linked 9 Dec 2014 15:06:28 


 **********************************************************************************************************************************
 LABEL *   co2h2o                                                                        
 Linux-2.6.32-504.el6.x86_64/node19(x86_64) 64 bit mpp version                           DATE: 15-Dec-16          TIME: 00:54:53  
 **********************************************************************************************************************************

 Patch level:      19
 **********************************************************************************************************************************

 Variable memory set to  100000000 words,  buffer space   230000 words

 SETTING BASIS          =    AVTZ
 SETTING GEOMTYPE       =    XYZ

Geometry recognized as XYZ



 Recomputing integrals since basis changed


 Using spherical harmonics

 Library entry O      S aug-cc-pVTZ          selected for orbital group  1
 Library entry O      P aug-cc-pVTZ          selected for orbital group  1
 Library entry O      D aug-cc-pVTZ          selected for orbital group  1
 Library entry O      F aug-cc-pVTZ          selected for orbital group  1
 Library entry H      S aug-cc-pVTZ          selected for orbital group  2
 Library entry H      P aug-cc-pVTZ          selected for orbital group  2
 Library entry H      D aug-cc-pVTZ          selected for orbital group  2
 Library entry C      S aug-cc-pVTZ          selected for orbital group  3
 Library entry C      P aug-cc-pVTZ          selected for orbital group  3
 Library entry C      D aug-cc-pVTZ          selected for orbital group  3
 Library entry C      F aug-cc-pVTZ          selected for orbital group  3

1PROGRAM * SEWARD (Integral evaluation for generally contracted gaussian basis sets)     Author: Roland Lindh, 1990

 Geometry written to block  1 of record 700


 Point group  C1  



 ATOMIC COORDINATES

 NR  ATOM    CHARGE       X              Y              Z

   1  O       8.00    0.000606602    2.191889560    0.000000000
   2  O       8.00    0.000782347   -2.191882001    0.000000000
   3  O       8.00   10.017065115    7.333623471    2.630567240
   4  H       1.00   11.512886357    7.917465036    1.794649456
   5  H       1.00   10.610412305    6.429148104    4.082107909
   6  C       6.00    0.036921469    0.000005669    0.000000000

 Bond lengths in Bohr (Angstrom)

 1-6  2.192184701  2-6  2.192185575  3-4  1.810279178  3-5  1.810278125
     (1.160054182)     (1.160054644)     (0.957958483)     (0.957957926)

 Bond angles

  1-6-2  178.10622893   4-3-5  105.10354984

 NUCLEAR CHARGE:                   32
 NUMBER OF PRIMITIVE AOS:         322
 NUMBER OF SYMMETRY AOS:          282
 NUMBER OF CONTRACTIONS:          230   ( 230A   )
 NUMBER OF CORE ORBITALS:           4   (   4A   )
 NUMBER OF VALENCE ORBITALS:       18   (  18A   )


 NUCLEAR REPULSION ENERGY   84.69467127


 Eigenvalues of metric

         1 0.343E-03 0.377E-03 0.389E-03 0.404E-03 0.894E-03 0.913E-03 0.165E-02 0.173E-02


 Contracted 2-electron integrals neglected if value below      1.0D-11
 AO integral compression algorithm  1   Integral accuracy      1.0D-11

     610.009 MB (compressed) written to integral file ( 20.7%)

     Node minimum: 199.229 MB, node maximum: 210.239 MB


 NUMBER OF SORTED TWO-ELECTRON INTEGRALS:  117629820.     BUFFER LENGTH:  32768
 NUMBER OF SEGMENTS:   8  SEGMENT LENGTH:   15997437      RECORD LENGTH: 524288

 Memory used in sort:      16.55 MW

 SORT1 READ   369203429. AND WROTE    46035428. INTEGRALS IN    136 RECORDS. CPU TIME:     3.32 SEC, REAL TIME:     3.77 SEC
 SORT2 READ   137421075. AND WROTE   352862895. INTEGRALS IN   2280 RECORDS. CPU TIME:     1.14 SEC, REAL TIME:     1.47 SEC

 Node minimum:   117612110.  Node maximum:   117629820. integrals

 OPERATOR DM      FOR CENTER  0  COORDINATES:    0.000000    0.000000    0.000000


 **********************************************************************************************************************************
 DATASETS  * FILE   NREC   LENGTH (MB)   RECORD NAMES
              1      18        4.62       500      610      700      900      950      970     1000      129      960     1100   
                                          VAR    BASINP    GEOM    SYMINP    ZMAT    AOBASIS   BASIS     P2S    ABASIS      S 
                                         1400     1410     1200     1210     1080     1600     1650     1700   
                                           T        V       H0       H01     AOSYM     SMH    MOLCAS    OPER   

 PROGRAMS   *        TOTAL       INT
 CPU TIMES  *         7.67      7.60
 REAL TIME  *         8.65 SEC
 DISK USED  *         2.21 GB      
 GA USED    *         0.00 MB       (max)       0.00 MB       (current)
 **********************************************************************************************************************************

1PROGRAM * RHF-SCF (CLOSED SHELL)       Authors: W. Meyer, H.-J. Werner


 NUMBER OF ELECTRONS:      16+   16-    SPACE SYMMETRY=1    SPIN SYMMETRY=Singlet 
 CONVERGENCE THRESHOLDS:    1.00E-05 (Density)    1.00E-07 (Energy)
 MAX. NUMBER OF ITERATIONS:       60
 INTERPOLATION TYPE:            DIIS
 INTERPOLATION STEPS:              2 (START)      1 (STEP)
 LEVEL SHIFTS:                  0.00 (CLOSED)  0.00 (OPEN) 



 Orbital guess generated from atomic densities. Full valence occupancy:   22

 Molecular orbital dump at record        2100.2

 ITERATION    DDIFF          GRAD             ENERGY        2-EL.EN.            DIPOLE MOMENTS         DIIS
    1      0.000D+00      0.000D+00      -263.66117607    365.029539    1.12576   -0.16405    0.31509    0
    2      0.000D+00      0.468D-02      -263.72640052    360.413445    0.64923   -0.07482    0.18702    1
    3      0.749D-02      0.317D-02      -263.76934046    362.980168    0.76910   -0.10162    0.21739    2
    4      0.308D-02      0.297D-03      -263.76982889    362.766904    0.77205   -0.09935    0.21860    3
    5      0.356D-03      0.860D-04      -263.76988537    362.770572    0.76702   -0.10054    0.21709    4
    6      0.132D-03      0.346D-04      -263.76989229    362.784290    0.76762   -0.09940    0.21730    5
    7      0.435D-04      0.866D-05      -263.76989300    362.776217    0.76721   -0.09992    0.21718    6
    8      0.143D-04      0.217D-05      -263.76989305    362.777162    0.76721   -0.09953    0.21718    7
    9      0.391D-05      0.143D-05      -263.76989306    362.777281    0.76719   -0.09985    0.21718    0

 Final occupancy:  16

 !RHF STATE 1.1 Energy               -263.769893056629
 Nuclear energy                        84.69467127
 One-electron energy                 -529.85320471
 Two-electron energy                  181.38864038
 Virial quotient                       -1.00173682
 !RHF STATE 1.1 Dipole moment           0.76719158    -0.09985237     0.21717547
 Dipole moment /Debye                   1.94987877    -0.25378280     0.55196883

 Orbital energies:

         1.1          2.1          3.1          4.1          5.1          6.1          7.1          8.1          9.1         10.1
    -20.649461   -20.648937   -20.567309   -11.457294    -1.528607    -1.475473    -1.353056    -0.797357    -0.740211    -0.718845

        11.1         12.1         13.1         14.1         15.1         16.1         17.1         18.1
     -0.712423    -0.712378    -0.583854    -0.541220    -0.541166    -0.510370     0.028402     0.045666


 **********************************************************************************************************************************
 DATASETS  * FILE   NREC   LENGTH (MB)   RECORD NAMES
              1      18        4.62       500      610      700      900      950      970     1000      129      960     1100   
                                          VAR    BASINP    GEOM    SYMINP    ZMAT    AOBASIS   BASIS     P2S    ABASIS      S 
                                         1400     1410     1200     1210     1080     1600     1650     1700   
                                           T        V       H0       H01     AOSYM     SMH    MOLCAS    OPER   

              2       3        1.44       700     1000     2100   
                                         GEOM     BASIS     RHF  

 PROGRAMS   *        TOTAL        HF       INT
 CPU TIMES  *        16.71      9.04      7.60
 REAL TIME  *        17.95 SEC
 DISK USED  *         2.25 GB      
 SF USED    *         0.21 MB      
 GA USED    *         0.00 MB       (max)       0.00 MB       (current)
 **********************************************************************************************************************************


1PROGRAM * CCSD (Closed-shell coupled cluster)     Authors: C. Hampel, H.-J. Werner, 1991, M. Deegan, P.J. Knowles, 1992

                                  CCSD-F12 implementation by  H.-J. Werner, 2007

                   Density fitting integral evaluation by F.R. Manby, 2003,2007, G. Knizia, 2010

 Basis set CC-PVTZ/JKFIT generated.      Number of basis functions:   376 
 Basis set AUG-CC-PVTZ/MP2FIT generated. Number of basis functions:   516 

 Convergence thresholds:  THRVAR = 1.00D-08  THRDEN = 1.00D-06

 CCSD(T)     terms to be evaluated (factor= 1.000)


 Number of core orbitals:           4 (   4 )
 Number of closed-shell orbitals:  12 (  12 )
 Number of external orbitals:     214 ( 214 )

 Molecular orbitals read from record     2100.2  Type=RHF/CANONICAL (state 1.1)

 MP2-F12 correlation treatment (H.-J. Werner, 2006)
 --------------------------------------------------

 Using MP2-F12 with ansatz 3C(FIX)

 Using projected zeroth-order Hamiltonian (+Z)

 FOCKRIB=T FOCKRIC=T FOCKRIP=T CABSP=T CABSA=T CABSK=T CABSF=T GBC=F EBC=F DMAT=T NOFIK=T NOPAO=1 SOLVE=-1  USEPAO=0
 EXCH_A= T EXCH_B= F EXCH_C= F EXCH_P= F
 
 Geminal basis:    OPTFULL  GEM_TYPE=SLATER  BETA=1.0  NGEM=6

 Optimizing Gaussian exponents for each gem_beta

 Geminal optimization for beta= 1.0000
 Weight function:   m=0, omega= 1.4646

 Augmented Hessian optimization of geminal fit. Trust ratio= 0.40000
 Convergence reached after   2 iterations. Final gradient= 8.24D-16, Step= 4.32D-06, Delta= 1.28D-09
 
 Alpha:                 0.19532     0.81920     2.85917     9.50073    35.69989   197.79328
 Coeff:                 0.27070     0.30552     0.18297     0.10986     0.06810     0.04224
 

 All pairs explicitly correlated. Number of r12-pairs:           78
 
 AO(A)-basis ORBITAL           loaded. Number of functions:     230
 RI(R)-basis CC-PVTZ/JKFIT     loaded. Number of functions:     376
 DF-basis CC-PVTZ/JKFIT        loaded. Number of functions:     376

 Screening thresholds:   THRAO=  1.00D-10  THRMO=  1.00D-09  THRPROD=  1.00D-09
                         THRSW=  1.00D-05  THROV=  1.00D-12  THRF12=   1.00D-08

 CPU time for Fock operators                      0.89 sec
 
 Construction of ABS:
 Smallest eigenvalue of S          2.57E-04  (threshold= 1.00E-08)
 Ratio eigmin/eigmax               1.83E-06  (threshold= 1.00E-09)
 Smallest eigenvalue of S kept     2.57E-04  (threshold= 2.57E-04, 0 functions deleted, 376 kept)
 
 Construction of CABS:
 Smallest eigenvalue of S          2.29E-08  (threshold= 1.00E-08)
 Ratio eigmin/eigmax               2.29E-08  (threshold= 1.00E-09)
 Smallest eigenvalue of S kept     2.29E-08  (threshold= 2.29E-08, 0 functions deleted, 376 kept)
 
 CPU time for CABS singles                        0.16 sec

 CABS-singles contribution of  -0.01596065 patched into reference energy.
 New reference energy        -263.78585371
 
 AO(A)-basis ORBITAL           loaded. Number of functions:     230
 RI(R)-basis CC-PVTZ/JKFIT     loaded. Number of functions:     376
 DF-basis AUG-CC-PVTZ/MP2FIT   loaded. Number of functions:     516

 Screening thresholds:   THRAO=  1.00D-10  THRMO=  1.00D-09  THRPROD=  1.00D-09
                         THRSW=  1.00D-05  THROV=  1.00D-12  THRF12=   1.00D-08

 CPU time for 3-index integral evaluation         1.82 sec
 CPU time for first  half transformation          0.23 sec (11377.6 MFLOP/sec)
 CPU time for second half transformation          0.02 sec ( 4947.7 MFLOP/sec)
 CPU time for sorting                             0.15 sec
 CPU time for fitting                             0.06 sec (23217.5 MFLOP/sec)
 CPU time for tilde quantities                    0.08 sec (23111.0 MFLOP/sec)
 CPU time for assembly                            0.74 sec (32077.8 MFLOP/sec)
 CPU time for tranop_f12                          0.89 sec (34130.0 MFLOP/sec)
 CPU time for f12 integrals (total)               5.98 sec
 F12-matrices built in  3 passes.
 F12-matrices built in  3 passes.
 F12-matrices built in  3 passes.
 F12-matrices built in  3 passes.
 FC-matrix built in  3 passes.
 CPU time for f12 matrices (total)                0.50 sec

 Diagonal F12 approximation with fixed coefficients:  TSING= 0.500,  TTRIP= 0.250 (scaled by -1/beta)

 DF-MP2-F12 energy corrections:
 ------------------------------
 Approx.                                    Singlet             Triplet             Total
 DF-MP2-F12/3*C(DX,FIX)                -0.097499042739     -0.016949770398     -0.114448813137
 DF-MP2-F12/3*C(FIX)                   -0.079899692155     -0.013406866123     -0.093306558278
 DF-MP2-F12/3C(FIX)                    -0.080258338429     -0.013430020371     -0.093688358800

 DF-MP2-F12 correlation energies:
 --------------------------------
 Approx.                                    Singlet             Triplet             Ecorr            Total Energy
 DF-MP2                                -0.537359244272     -0.342800301313     -0.880159545585   -264.666013255852
 DF-MP2-F12/3*C(DX,FIX)                -0.634858287011     -0.359750071711     -0.994608358721   -264.780462068988
 DF-MP2-F12/3*C(FIX)                   -0.617258936427     -0.356207167435     -0.973466103863   -264.759319814129
 DF-MP2-F12/3C(FIX)                    -0.617617582702     -0.356230321683     -0.973847904385   -264.759701614652

 SCS-DF-MP2 energies (F_SING= 1.20000  F_TRIP= 0.62222  F_PARALLEL= 0.33333):
 ----------------------------------------------------------------------------
 SCS-DF-MP2                            -0.858129058388   -264.643982768655
 SCS-DF-MP2-F12/3*C(DX,FIX)            -0.985674433477   -264.771528143744
 SCS-DF-MP2-F12/3*C(FIX)               -0.962350739006   -264.748204449273
 SCS-DF-MP2-F12/3C(FIX)                -0.962795521623   -264.748649231889
 Symmetry transformation completed.

 Number of N-1 electron functions:              12
 Number of N-2 electron functions:              78
 Number of singly external CSFs:              2568
 Number of doubly external CSFs:           3298596
 Total number of CSFs:                     3301165

 Pair and operator lists are different

 Length of J-op  integral file:             474.22 MB
 Length of K-op  integral file:             572.29 MB
 Length of 3-ext integral record:             0.00 MB

 For full I/O caching in triples, increase memory by 50.81 Mwords to 151.09 Mwords.

 Integral transformation finished. Total CPU:  11.67 sec, npass=  1  Memory used:  87.46 MW

 Reference energy:                   -263.78585371

 Adding F12 terms to K(Cij), methodcc=6,  factor=1.0

 ITER.      SQ.NORM     CORR.ENERGY   TOTAL ENERGY   ENERGY CHANGE        DEN1      VAR(S)    VAR(P)  DIIS     TIME
   1      1.20177674    -0.86223926  -264.64809297     0.01793664     0.04639437  0.71D-02  0.55D-02  1  1    26.99
   2      1.21600424    -0.85805384  -264.64390755     0.00418542    -0.02004934  0.85D-04  0.58D-03  2  2    34.39
   3      1.22131523    -0.85814790  -264.64400161    -0.00009406    -0.00235172  0.13D-03  0.32D-04  3  3    41.85
   4      1.22408588    -0.85802274  -264.64387645     0.00012516    -0.00140070  0.74D-05  0.40D-05  4  4    49.27
   5      1.22509956    -0.85798572  -264.64383943     0.00003701    -0.00036155  0.54D-06  0.28D-06  5  5    56.70
   6      1.22525912    -0.85795927  -264.64381298     0.00002645    -0.00000787  0.39D-07  0.23D-07  6  6    64.17
   7      1.22528795    -0.85795690  -264.64381061     0.00000238    -0.00000613  0.25D-08  0.39D-08  6  4    71.76
   8      1.22528825    -0.85795641  -264.64381012     0.00000048     0.00000191  0.38D-09  0.26D-09  6  1    79.21
   9      1.22528885    -0.85795648  -264.64381019    -0.00000007     0.00000055  0.25D-10  0.21D-10  6  2    86.70

 Norm of t1 vector:      0.10538593      S-energy:     0.00000045      T1 diagnostic:  0.01521115
                                                                       D1 diagnostic:  0.04464442

 Adding energy correction from Wij-K(Fij), methodcc=6  factor=1.0
 
  CCSD correlation energy              -0.857956480064
  MP2-F12 correction (uncoupled)       -0.092536407665
  C*T doubles correction               -0.001473633786
  f12b correction                       0.015402825655


 Total CPU time for triples:    207.32 sec


 RESULTS
 =======

  Reference energy                   -263.769893056629
  F12 singles correction               -0.015960653638

 F12 singles corrections added to reference energy

  New reference energy               -263.785853710267

  F12a singlet correction              -0.080460880504
  F12a triplet correction              -0.013549160947
  F12a total correction                -0.094010041451

 F12a corrections for ansatz F12/3C(FIX) added to CCSD energy
 
  CCSD-F12a singlet pair energy        -0.641561375579
  CCSD-F12a triplet pair energy        -0.310405598210
  CCSD-F12a correlation energy         -0.951966521516

  Triples (T) contribution             -0.037516606406
  Total correlation energy             -0.989483127921

  CCSD-F12a total energy             -264.737820231783
  CCSD[T]-F12a energy                -264.777854342842
  CCSD-T-F12a energy                 -264.774406870267
 !CCSD(T)-F12a total energy          -264.775336838188

 F12b corrections for ansatz F12/3C(FIX) added to CCSD(T)-F12a energy

  CCSD-F12b singlet pair energy        -0.627382457030
  CCSD-F12b triplet pair energy        -0.309181691103
  CCSD-F12b correlation energy         -0.936563695860

  Triples (T) contribution             -0.037516606406
  Total correlation energy             -0.974080302266

  CCSD-F12b total energy             -264.722417406127
  CCSD[T]-F12b energy                -264.762451517187
  CCSD-T-F12b energy                 -264.759004044612
 !CCSD(T)-F12b total energy          -264.759934012533

 Timing summary (sec):

 STEP                 CPU(USER)    SYS     CPU(TOT)    WALL
 Transformation         11.78      1.00     12.78     13.01
 CCSD iterations        66.88      2.73     69.61     69.61
 Triples               207.32      2.11    209.43    209.33
 MP2-F12                 8.07      1.10      9.17      9.18
 F12b energy             4.82      0.05      4.87      4.87

 Program statistics:

 Available memory in ccsd:                99998934
 Min. memory needed in ccsd:               8644845
 Max. memory used in ccsd:                11598633
 Max. memory used in cckext:               8768967 (10 integral passes)



 **********************************************************************************************************************************
 DATASETS  * FILE   NREC   LENGTH (MB)   RECORD NAMES
              1      20      527.84       500      610      700      900      950      970     1000      129      960     1100   
                                          VAR    BASINP    GEOM    SYMINP    ZMAT    AOBASIS   BASIS     P2S    ABASIS      S 
                                         1400     1410     1200     1210     1080     1600     1650     1700      960(1)  1380   
                                           T        V       H0       H01     AOSYM     SMH    MOLCAS    OPER    ABASIS    JKOP   

              2       5        2.50       700     1000     2100     7360     7350   
                                         GEOM     BASIS     RHF    F12ABS    EF12   

 PROGRAMS   *        TOTAL   CCSD(T)        HF       INT
 CPU TIMES  *       315.68    298.97      9.04      7.60
 REAL TIME  *       324.29 SEC
 DISK USED  *         3.11 GB      
 SF USED    *         1.91 GB      
 GA USED    *         2.40 MB       (max)       0.00 MB       (current)
 **********************************************************************************************************************************

     CCSD(T)-F12        HF-SCF  
   -264.75993401   -263.76989306
 **********************************************************************************************************************************
 Variable memory released
