
 Primary working directories    : /scratch/kee
 Secondary working directories  : /scratch/kee
 Wavefunction directory         : /home/kee/wfu/
 Main file repository           : /scratch/kee/

 ARCHNAME  : Linux/x86_64
 FC        : /opt/intel/composer_xe_2015.0.090/bin/intel64/ifort
 FCVERSION : 15.0.0
 BLASLIB   : -L/opt/intel/mkl/lib/intel64 -lmkl_intel_ilp64 -lmkl_sequential -lmkl_core
 id        : emory

 Nodes     nprocs
 node19       3
 Number of processes for MPI-2 version of Molpro:   nprocs(total)=    4   nprocs(compute)=    3   nprocs(helper)=    1
 ga_uses_ma=false, calling ma_init with nominal heap.
 GA-space will be limited to   8.0 MW (determined by -G option)

 Using customized tuning parameters: mindgm=7; mindgv=32; mindgc=1; mindgr=1; noblas=0; mincuda=1000; minvec=7
 default implementation of scratch files=sf  

 ***,co2h2o
 memory,100,m
 basis avtz
 geomtype = xyz
 geometry = {
 6
       0.00000000
 O     0.00032100    1.15989800    0.00000000
 O     0.00041400   -1.15989400    0.00000000
 O     5.61610193    4.11247496    1.47514288
 H     6.40765645    4.42143061    1.03279424
 H     5.93008774    3.63384721    2.24326511
 C     0.01953800    0.00000300    0.00000000
 }
 hf
 ccsd(t)-f12
 ---

 Variables initialized (665), CPU time= 0.01 sec
 Commands  initialized (462), CPU time= 0.00 sec, 486 directives.
 Default parameters read. Elapsed time= 0.04 sec

 Checking input...
 Passed
1


                                         ***  PROGRAM SYSTEM MOLPRO  ***
                         Copyright, University College Cardiff Consultants Limited, 2008

                                    Version 2010.1 linked 9 Dec 2014 15:06:28 


 **********************************************************************************************************************************
 LABEL *   co2h2o                                                                        
 Linux-2.6.32-504.el6.x86_64/node19(x86_64) 64 bit mpp version                           DATE: 15-Dec-16          TIME: 01:39:23  
 **********************************************************************************************************************************

 Patch level:      19
 **********************************************************************************************************************************

 Variable memory set to  100000000 words,  buffer space   230000 words

 SETTING BASIS          =    AVTZ
 SETTING GEOMTYPE       =    XYZ

Geometry recognized as XYZ



 Recomputing integrals since basis changed


 Using spherical harmonics

 Library entry O      S aug-cc-pVTZ          selected for orbital group  1
 Library entry O      P aug-cc-pVTZ          selected for orbital group  1
 Library entry O      D aug-cc-pVTZ          selected for orbital group  1
 Library entry O      F aug-cc-pVTZ          selected for orbital group  1
 Library entry H      S aug-cc-pVTZ          selected for orbital group  2
 Library entry H      P aug-cc-pVTZ          selected for orbital group  2
 Library entry H      D aug-cc-pVTZ          selected for orbital group  2
 Library entry C      S aug-cc-pVTZ          selected for orbital group  3
 Library entry C      P aug-cc-pVTZ          selected for orbital group  3
 Library entry C      D aug-cc-pVTZ          selected for orbital group  3
 Library entry C      F aug-cc-pVTZ          selected for orbital group  3

1PROGRAM * SEWARD (Integral evaluation for generally contracted gaussian basis sets)     Author: Roland Lindh, 1990

 Geometry written to block  1 of record 700


 Point group  C1  



 ATOMIC COORDINATES

 NR  ATOM    CHARGE       X              Y              Z

   1  O       8.00    0.000606602    2.191889560    0.000000000
   2  O       8.00    0.000782347   -2.191882001    0.000000000
   3  O       8.00   10.612894574    7.771451397    2.787616048
   4  H       1.00   12.108715835    8.355292962    1.951698264
   5  H       1.00   11.206241764    6.866976030    4.239156698
   6  C       6.00    0.036921469    0.000005669    0.000000000

 Bond lengths in Bohr (Angstrom)

 1-6  2.192184701  2-6  2.192185575  3-4  1.810279194  3-5  1.810278110
     (1.160054182)     (1.160054644)     (0.957958491)     (0.957957918)

 Bond angles

  1-6-2  178.10622893   4-3-5  105.10354935

 NUCLEAR CHARGE:                   32
 NUMBER OF PRIMITIVE AOS:         322
 NUMBER OF SYMMETRY AOS:          282
 NUMBER OF CONTRACTIONS:          230   ( 230A   )
 NUMBER OF CORE ORBITALS:           4   (   4A   )
 NUMBER OF VALENCE ORBITALS:       18   (  18A   )


 NUCLEAR REPULSION ENERGY   83.74522419


 Eigenvalues of metric

         1 0.344E-03 0.376E-03 0.390E-03 0.407E-03 0.895E-03 0.914E-03 0.165E-02 0.173E-02


 Contracted 2-electron integrals neglected if value below      1.0D-11
 AO integral compression algorithm  1   Integral accuracy      1.0D-11

     571.736 MB (compressed) written to integral file ( 20.3%)

     Node minimum: 180.879 MB, node maximum: 209.191 MB


 NUMBER OF SORTED TWO-ELECTRON INTEGRALS:  117629820.     BUFFER LENGTH:  32768
 NUMBER OF SEGMENTS:   8  SEGMENT LENGTH:   15997437      RECORD LENGTH: 524288

 Memory used in sort:      16.55 MW

 SORT1 READ   352451099. AND WROTE    42513193. INTEGRALS IN    126 RECORDS. CPU TIME:     3.12 SEC, REAL TIME:     3.53 SEC
 SORT2 READ   126798996. AND WROTE   352862895. INTEGRALS IN   2394 RECORDS. CPU TIME:     1.10 SEC, REAL TIME:     1.44 SEC

 Node minimum:   117612110.  Node maximum:   117629820. integrals

 OPERATOR DM      FOR CENTER  0  COORDINATES:    0.000000    0.000000    0.000000


 **********************************************************************************************************************************
 DATASETS  * FILE   NREC   LENGTH (MB)   RECORD NAMES
              1      18        4.62       500      610      700      900      950      970     1000      129      960     1100   
                                          VAR    BASINP    GEOM    SYMINP    ZMAT    AOBASIS   BASIS     P2S    ABASIS      S 
                                         1400     1410     1200     1210     1080     1600     1650     1700   
                                           T        V       H0       H01     AOSYM     SMH    MOLCAS    OPER   

 PROGRAMS   *        TOTAL       INT
 CPU TIMES  *         7.26      7.19
 REAL TIME  *         8.18 SEC
 DISK USED  *         2.05 GB      
 GA USED    *         0.00 MB       (max)       0.00 MB       (current)
 **********************************************************************************************************************************

1PROGRAM * RHF-SCF (CLOSED SHELL)       Authors: W. Meyer, H.-J. Werner


 NUMBER OF ELECTRONS:      16+   16-    SPACE SYMMETRY=1    SPIN SYMMETRY=Singlet 
 CONVERGENCE THRESHOLDS:    1.00E-05 (Density)    1.00E-07 (Energy)
 MAX. NUMBER OF ITERATIONS:       60
 INTERPOLATION TYPE:            DIIS
 INTERPOLATION STEPS:              2 (START)      1 (STEP)
 LEVEL SHIFTS:                  0.00 (CLOSED)  0.00 (OPEN) 



 Orbital guess generated from atomic densities. Full valence occupancy:   22

 Molecular orbital dump at record        2100.2

 ITERATION    DDIFF          GRAD             ENERGY        2-EL.EN.            DIPOLE MOMENTS         DIIS
    1      0.000D+00      0.000D+00      -263.66121371    363.105365    1.12573   -0.16406    0.31508    0
    2      0.000D+00      0.468D-02      -263.72643237    358.499470    0.64833   -0.07840    0.18701    1
    3      0.749D-02      0.317D-02      -263.76935472    361.063560    0.76837   -0.10346    0.21738    2
    4      0.308D-02      0.296D-03      -263.76984311    360.850275    0.77135   -0.10165    0.21860    3
    5      0.356D-03      0.859D-04      -263.76989957    360.854021    0.76630   -0.10253    0.21709    4
    6      0.132D-03      0.345D-04      -263.76990648    360.867751    0.76691   -0.10158    0.21731    5
    7      0.434D-04      0.861D-05      -263.76990719    360.859638    0.76649   -0.10202    0.21718    6
    8      0.142D-04      0.209D-05      -263.76990723    360.860666    0.76649   -0.10168    0.21718    7
    9      0.389D-05      0.131D-05      -263.76990724    360.860714    0.76647   -0.10197    0.21718    0

 Final occupancy:  16

 !RHF STATE 1.1 Energy               -263.769907238527
 Nuclear energy                        83.74522419
 One-electron energy                 -527.94548833
 Two-electron energy                  180.43035690
 Virial quotient                       -1.00173698
 !RHF STATE 1.1 Dipole moment           0.76647326    -0.10196983     0.21717670
 Dipole moment /Debye                   1.94805311    -0.25916448     0.55197197

 Orbital energies:

         1.1          2.1          3.1          4.1          5.1          6.1          7.1          8.1          9.1         10.1
    -20.649842   -20.649392   -20.567268   -11.457718    -1.529025    -1.475894    -1.353014    -0.797780    -0.740638    -0.718802

        11.1         12.1         13.1         14.1         15.1         16.1         17.1         18.1
     -0.712836    -0.712799    -0.583823    -0.541638    -0.541592    -0.510328     0.028461     0.045686


 **********************************************************************************************************************************
 DATASETS  * FILE   NREC   LENGTH (MB)   RECORD NAMES
              1      18        4.62       500      610      700      900      950      970     1000      129      960     1100   
                                          VAR    BASINP    GEOM    SYMINP    ZMAT    AOBASIS   BASIS     P2S    ABASIS      S 
                                         1400     1410     1200     1210     1080     1600     1650     1700   
                                           T        V       H0       H01     AOSYM     SMH    MOLCAS    OPER   

              2       3        1.44       700     1000     2100   
                                         GEOM     BASIS     RHF  

 PROGRAMS   *        TOTAL        HF       INT
 CPU TIMES  *        16.02      8.76      7.19
 REAL TIME  *        17.23 SEC
 DISK USED  *         2.09 GB      
 SF USED    *         0.21 MB      
 GA USED    *         0.00 MB       (max)       0.00 MB       (current)
 **********************************************************************************************************************************


1PROGRAM * CCSD (Closed-shell coupled cluster)     Authors: C. Hampel, H.-J. Werner, 1991, M. Deegan, P.J. Knowles, 1992

                                  CCSD-F12 implementation by  H.-J. Werner, 2007

                   Density fitting integral evaluation by F.R. Manby, 2003,2007, G. Knizia, 2010

 Basis set CC-PVTZ/JKFIT generated.      Number of basis functions:   376 
 Basis set AUG-CC-PVTZ/MP2FIT generated. Number of basis functions:   516 

 Convergence thresholds:  THRVAR = 1.00D-08  THRDEN = 1.00D-06

 CCSD(T)     terms to be evaluated (factor= 1.000)


 Number of core orbitals:           4 (   4 )
 Number of closed-shell orbitals:  12 (  12 )
 Number of external orbitals:     214 ( 214 )

 Molecular orbitals read from record     2100.2  Type=RHF/CANONICAL (state 1.1)

 MP2-F12 correlation treatment (H.-J. Werner, 2006)
 --------------------------------------------------

 Using MP2-F12 with ansatz 3C(FIX)

 Using projected zeroth-order Hamiltonian (+Z)

 FOCKRIB=T FOCKRIC=T FOCKRIP=T CABSP=T CABSA=T CABSK=T CABSF=T GBC=F EBC=F DMAT=T NOFIK=T NOPAO=1 SOLVE=-1  USEPAO=0
 EXCH_A= T EXCH_B= F EXCH_C= F EXCH_P= F
 
 Geminal basis:    OPTFULL  GEM_TYPE=SLATER  BETA=1.0  NGEM=6

 Optimizing Gaussian exponents for each gem_beta

 Geminal optimization for beta= 1.0000
 Weight function:   m=0, omega= 1.4646

 Augmented Hessian optimization of geminal fit. Trust ratio= 0.40000
 Convergence reached after   2 iterations. Final gradient= 8.24D-16, Step= 4.32D-06, Delta= 1.28D-09
 
 Alpha:                 0.19532     0.81920     2.85917     9.50073    35.69989   197.79328
 Coeff:                 0.27070     0.30552     0.18297     0.10986     0.06810     0.04224
 

 All pairs explicitly correlated. Number of r12-pairs:           78
 
 AO(A)-basis ORBITAL           loaded. Number of functions:     230
 RI(R)-basis CC-PVTZ/JKFIT     loaded. Number of functions:     376
 DF-basis CC-PVTZ/JKFIT        loaded. Number of functions:     376

 Screening thresholds:   THRAO=  1.00D-10  THRMO=  1.00D-09  THRPROD=  1.00D-09
                         THRSW=  1.00D-05  THROV=  1.00D-12  THRF12=   1.00D-08

 CPU time for Fock operators                      0.90 sec
 
 Construction of ABS:
 Smallest eigenvalue of S          2.57E-04  (threshold= 1.00E-08)
 Ratio eigmin/eigmax               1.83E-06  (threshold= 1.00E-09)
 Smallest eigenvalue of S kept     2.57E-04  (threshold= 2.57E-04, 0 functions deleted, 376 kept)
 
 Construction of CABS:
 Smallest eigenvalue of S          2.29E-08  (threshold= 1.00E-08)
 Ratio eigmin/eigmax               2.29E-08  (threshold= 1.00E-09)
 Smallest eigenvalue of S kept     2.29E-08  (threshold= 2.29E-08, 0 functions deleted, 376 kept)
 
 CPU time for CABS singles                        0.16 sec

 CABS-singles contribution of  -0.01596062 patched into reference energy.
 New reference energy        -263.78586785
 
 AO(A)-basis ORBITAL           loaded. Number of functions:     230
 RI(R)-basis CC-PVTZ/JKFIT     loaded. Number of functions:     376
 DF-basis AUG-CC-PVTZ/MP2FIT   loaded. Number of functions:     516

 Screening thresholds:   THRAO=  1.00D-10  THRMO=  1.00D-09  THRPROD=  1.00D-09
                         THRSW=  1.00D-05  THROV=  1.00D-12  THRF12=   1.00D-08

 CPU time for 3-index integral evaluation         1.83 sec
 CPU time for first  half transformation          0.26 sec (10128.3 MFLOP/sec)
 CPU time for second half transformation          0.01 sec (10086.0 MFLOP/sec)
 CPU time for sorting                             0.15 sec
 CPU time for fitting                             0.07 sec (19900.7 MFLOP/sec)
 CPU time for tilde quantities                    0.05 sec (36977.6 MFLOP/sec)
 CPU time for assembly                            0.77 sec (30076.8 MFLOP/sec)
 CPU time for tranop_f12                          0.92 sec (32243.9 MFLOP/sec)
 CPU time for f12 integrals (total)               6.14 sec
 F12-matrices built in  3 passes.
 F12-matrices built in  3 passes.
 F12-matrices built in  3 passes.
 F12-matrices built in  3 passes.
 FC-matrix built in  3 passes.
 CPU time for f12 matrices (total)                0.50 sec

 Diagonal F12 approximation with fixed coefficients:  TSING= 0.500,  TTRIP= 0.250 (scaled by -1/beta)

 DF-MP2-F12 energy corrections:
 ------------------------------
 Approx.                                    Singlet             Triplet             Total
 DF-MP2-F12/3*C(DX,FIX)                -0.097500800443     -0.016950080840     -0.114450881282
 DF-MP2-F12/3*C(FIX)                   -0.079901287017     -0.013407157225     -0.093308444242
 DF-MP2-F12/3C(FIX)                    -0.080259897006     -0.013430258726     -0.093690155732

 DF-MP2-F12 correlation energies:
 --------------------------------
 Approx.                                    Singlet             Triplet             Ecorr            Total Energy
 DF-MP2                                -0.537353473614     -0.342792781290     -0.880146254904   -264.666014108625
 DF-MP2-F12/3*C(DX,FIX)                -0.634854274057     -0.359742862130     -0.994597136187   -264.780464989908
 DF-MP2-F12/3*C(FIX)                   -0.617254760631     -0.356199938515     -0.973454699146   -264.759322552867
 DF-MP2-F12/3C(FIX)                    -0.617613370620     -0.356223040016     -0.973836410636   -264.759704264357

 SCS-DF-MP2 energies (F_SING= 1.20000  F_TRIP= 0.62222  F_PARALLEL= 0.33333):
 ----------------------------------------------------------------------------
 SCS-DF-MP2                            -0.858117454473   -264.643985308194
 SCS-DF-MP2-F12/3*C(DX,FIX)            -0.985665131971   -264.771532985692
 SCS-DF-MP2-F12/3*C(FIX)               -0.962341230056   -264.748209083777
 SCS-DF-MP2-F12/3C(FIX)                -0.962785936310   -264.748653790031
 Symmetry transformation completed.

 Number of N-1 electron functions:              12
 Number of N-2 electron functions:              78
 Number of singly external CSFs:              2568
 Number of doubly external CSFs:           3298596
 Total number of CSFs:                     3301165

 Pair and operator lists are different

 Length of J-op  integral file:             474.22 MB
 Length of K-op  integral file:             572.29 MB
 Length of 3-ext integral record:             0.00 MB

 For full I/O caching in triples, increase memory by 50.81 Mwords to 151.09 Mwords.

 Integral transformation finished. Total CPU:  12.11 sec, npass=  1  Memory used:  87.46 MW

 Reference energy:                   -263.78586785

 Adding F12 terms to K(Cij), methodcc=6,  factor=1.0

 ITER.      SQ.NORM     CORR.ENERGY   TOTAL ENERGY   ENERGY CHANGE        DEN1      VAR(S)    VAR(P)  DIIS     TIME
   1      1.20177247    -0.86222807  -264.64809592     0.01793456     0.04639095  0.71D-02  0.55D-02  1  1    27.79
   2      1.21599924    -0.85804296  -264.64391081     0.00418511    -0.02004838  0.85D-04  0.58D-03  2  2    35.23
   3      1.22131011    -0.85813702  -264.64400487    -0.00009406    -0.00235174  0.13D-03  0.32D-04  3  3    43.20
   4      1.22408064    -0.85801188  -264.64387974     0.00012514    -0.00140065  0.74D-05  0.40D-05  4  4    50.73
   5      1.22509427    -0.85797487  -264.64384273     0.00003701    -0.00036153  0.54D-06  0.28D-06  5  5    58.18
   6      1.22525381    -0.85794842  -264.64381628     0.00002645    -0.00000787  0.39D-07  0.23D-07  6  6    65.84
   7      1.22528263    -0.85794605  -264.64381390     0.00000238    -0.00000613  0.25D-08  0.39D-08  6  4    73.41
   8      1.22528293    -0.85794556  -264.64381342     0.00000048     0.00000191  0.38D-09  0.26D-09  6  1    81.08
   9      1.22528354    -0.85794563  -264.64381348    -0.00000007     0.00000055  0.25D-10  0.21D-10  6  2    88.68

 Norm of t1 vector:      0.10538441      S-energy:     0.00000034      T1 diagnostic:  0.01521093
                                                                       D1 diagnostic:  0.04464386

 Adding energy correction from Wij-K(Fij), methodcc=6  factor=1.0
 
  CCSD correlation energy              -0.857945630144
  MP2-F12 correction (uncoupled)       -0.092538145331
  C*T doubles correction               -0.001473723241
  f12b correction                       0.015402912171


 Total CPU time for triples:    208.34 sec


 RESULTS
 =======

  Reference energy                   -263.769907238527
  F12 singles correction               -0.015960615194

 F12 singles corrections added to reference energy

  New reference energy               -263.785867853721

  F12a singlet correction              -0.080462429312
  F12a triplet correction              -0.013549439261
  F12a total correction                -0.094011868573

 F12a corrections for ansatz F12/3C(FIX) added to CCSD energy
 
  CCSD-F12a singlet pair energy        -0.641557999951
  CCSD-F12a triplet pair energy        -0.310399839360
  CCSD-F12a correlation energy         -0.951957498717

  Triples (T) contribution             -0.037514648166
  Total correlation energy             -0.989472146882

  CCSD-F12a total energy             -264.737825352438
  CCSD[T]-F12a energy                -264.777857329200
  CCSD-T-F12a energy                 -264.774410087234
 !CCSD(T)-F12a total energy          -264.775340000604

 F12b corrections for ansatz F12/3C(FIX) added to CCSD(T)-F12a energy

  CCSD-F12b singlet pair energy        -0.627378990244
  CCSD-F12b triplet pair energy        -0.309175936897
  CCSD-F12b correlation energy         -0.936554586546

  Triples (T) contribution             -0.037514648166
  Total correlation energy             -0.974069234712

  CCSD-F12b total energy             -264.722422440267
  CCSD[T]-F12b energy                -264.762454417030
  CCSD-T-F12b energy                 -264.759007175064
 !CCSD(T)-F12b total energy          -264.759937088433

 Timing summary (sec):

 STEP                 CPU(USER)    SYS     CPU(TOT)    WALL
 Transformation         12.35      1.08     13.43     13.57
 CCSD iterations        68.05      2.76     70.81     71.82
 Triples               208.34      2.79    211.13    211.02
 MP2-F12                 8.29      1.16      9.45     10.12
 F12b energy             5.39      0.05      5.44      5.44

 Program statistics:

 Available memory in ccsd:                99998934
 Min. memory needed in ccsd:               8644845
 Max. memory used in ccsd:                11598633
 Max. memory used in cckext:               8768967 (10 integral passes)



 **********************************************************************************************************************************
 DATASETS  * FILE   NREC   LENGTH (MB)   RECORD NAMES
              1      20      527.84       500      610      700      900      950      970     1000      129      960     1100   
                                          VAR    BASINP    GEOM    SYMINP    ZMAT    AOBASIS   BASIS     P2S    ABASIS      S 
                                         1400     1410     1200     1210     1080     1600     1650     1700      960(1)  1380   
                                           T        V       H0       H01     AOSYM     SMH    MOLCAS    OPER    ABASIS    JKOP   

              2       5        2.50       700     1000     2100     7360     7350   
                                         GEOM     BASIS     RHF    F12ABS    EF12   

 PROGRAMS   *        TOTAL   CCSD(T)        HF       INT
 CPU TIMES  *       318.71    302.69      8.76      7.19
 REAL TIME  *       329.53 SEC
 DISK USED  *         2.95 GB      
 SF USED    *         1.91 GB      
 GA USED    *         2.40 MB       (max)       0.00 MB       (current)
 **********************************************************************************************************************************

     CCSD(T)-F12        HF-SCF  
   -264.75993709   -263.76990724
 **********************************************************************************************************************************
 Variable memory released
