
 Primary working directories    : /scratch/kee
 Secondary working directories  : /scratch/kee
 Wavefunction directory         : /home/kee/wfu/
 Main file repository           : /scratch/kee/

 ARCHNAME  : Linux/x86_64
 FC        : /opt/intel/composer_xe_2015.0.090/bin/intel64/ifort
 FCVERSION : 15.0.0
 BLASLIB   : -L/opt/intel/mkl/lib/intel64 -lmkl_intel_ilp64 -lmkl_sequential -lmkl_core
 id        : emory

 Nodes     nprocs
 node24       3
 Number of processes for MPI-2 version of Molpro:   nprocs(total)=    4   nprocs(compute)=    3   nprocs(helper)=    1
 ga_uses_ma=false, calling ma_init with nominal heap.
 GA-space will be limited to   8.0 MW (determined by -G option)

 Using customized tuning parameters: mindgm=7; mindgv=32; mindgc=1; mindgr=1; noblas=0; mincuda=1000; minvec=7
 default implementation of scratch files=sf  

 ***,co2h2o
 memory,100,m
 basis avtz
 geomtype = xyz
 geometry = {
 6
    -264.76489694
 O     0.82869278    1.16169550    0.00000000
 O     0.82658011   -1.16233555    0.00000000
 O    -2.39123456    0.00095517    0.00000000
 H    -2.97486757    0.76154982    0.00000000
 H    -2.97459946   -0.75984675    0.00000000
 C     0.80876519   -0.00029961    0.00000000
 }
 hf
 ccsd(t)-f12
 ---

 Variables initialized (665), CPU time= 0.01 sec
 Commands  initialized (462), CPU time= 0.00 sec, 486 directives.
 Default parameters read. Elapsed time= 0.03 sec

 Checking input...
 Passed
1


                                         ***  PROGRAM SYSTEM MOLPRO  ***
                         Copyright, University College Cardiff Consultants Limited, 2008

                                    Version 2010.1 linked 9 Dec 2014 15:06:28 


 **********************************************************************************************************************************
 LABEL *   co2h2o                                                                        
 Linux-2.6.32-504.el6.x86_64/node24(x86_64) 64 bit mpp version                           DATE: 07-Dec-16          TIME: 00:07:15  
 **********************************************************************************************************************************

 Patch level:      19
 **********************************************************************************************************************************

 Variable memory set to  100000000 words,  buffer space   230000 words

 SETTING BASIS          =    AVTZ
 SETTING GEOMTYPE       =    XYZ

Geometry recognized as XYZ



 Recomputing integrals since basis changed


 Using spherical harmonics

 Library entry O      S aug-cc-pVTZ          selected for orbital group  1
 Library entry O      P aug-cc-pVTZ          selected for orbital group  1
 Library entry O      D aug-cc-pVTZ          selected for orbital group  1
 Library entry O      F aug-cc-pVTZ          selected for orbital group  1
 Library entry H      S aug-cc-pVTZ          selected for orbital group  2
 Library entry H      P aug-cc-pVTZ          selected for orbital group  2
 Library entry H      D aug-cc-pVTZ          selected for orbital group  2
 Library entry C      S aug-cc-pVTZ          selected for orbital group  3
 Library entry C      P aug-cc-pVTZ          selected for orbital group  3
 Library entry C      D aug-cc-pVTZ          selected for orbital group  3
 Library entry C      F aug-cc-pVTZ          selected for orbital group  3

1PROGRAM * SEWARD (Integral evaluation for generally contracted gaussian basis sets)     Author: Roland Lindh, 1990

 Geometry written to block  1 of record 700


 Point group  Cs  



 ATOMIC COORDINATES

 NR  ATOM    CHARGE       X              Y              Z

   1  O       8.00    1.566002401    2.195286343    0.000000000
   2  O       8.00    1.562010034   -2.196495862    0.000000000
   3  O       8.00   -4.518778434    0.001805010    0.000000000
   4  H       1.00   -5.621684985    1.439120595    0.000000000
   5  H       1.00   -5.621178330   -1.435902259    0.000000000
   6  C       6.00    1.528344714   -0.000566181    0.000000000

 Bond lengths in Bohr (Angstrom)

 1-6  2.196175405  2-6  2.196187724  3-4  1.811706088  3-5  1.811708509
     (1.162165971)     (1.162172490)     (0.958713571)     (0.958714852)

 Bond angles

  1-6-2  178.13918425   4-3-5  105.01947441

 NUCLEAR CHARGE:                   32
 NUMBER OF PRIMITIVE AOS:         322
 NUMBER OF SYMMETRY AOS:          282
 NUMBER OF CONTRACTIONS:          230   ( 152A'  +  78A"  )
 NUMBER OF CORE ORBITALS:           4   (   4A'  +   0A"  )
 NUMBER OF VALENCE ORBITALS:       18   (  14A'  +   4A"  )


 NUCLEAR REPULSION ENERGY  101.04158882


 Eigenvalues of metric

         1 0.284E-03 0.307E-03 0.344E-03 0.352E-03 0.847E-03 0.883E-03 0.101E-02 0.156E-02
         2 0.310E-02 0.346E-02 0.542E-02 0.123E-01 0.132E-01 0.272E-01 0.295E-01 0.302E-01


 Contracted 2-electron integrals neglected if value below      1.0D-11
 AO integral compression algorithm  1   Integral accuracy      1.0D-11

     682.885 MB (compressed) written to integral file ( 41.1%)

     Node minimum: 165.675 MB, node maximum: 310.903 MB


 NUMBER OF SORTED TWO-ELECTRON INTEGRALS:   59950380.     BUFFER LENGTH:  32768
 NUMBER OF SEGMENTS:   4  SEGMENT LENGTH:   15995235      RECORD LENGTH: 524288

 Memory used in sort:      16.55 MW

 SORT1 READ   207531521. AND WROTE    52158004. INTEGRALS IN    151 RECORDS. CPU TIME:     3.83 SEC, REAL TIME:     4.39 SEC
 SORT2 READ   157089141. AND WROTE   179836431. INTEGRALS IN   2361 RECORDS. CPU TIME:     1.28 SEC, REAL TIME:     1.67 SEC

 Node minimum:    59940574.  Node maximum:    59950380. integrals

 OPERATOR DM      FOR CENTER  0  COORDINATES:    0.000000    0.000000    0.000000


 **********************************************************************************************************************************
 DATASETS  * FILE   NREC   LENGTH (MB)   RECORD NAMES
              1      18        3.74       500      610      700      900      950      970     1000      129      960     1100   
                                          VAR    BASINP    GEOM    SYMINP    ZMAT    AOBASIS   BASIS     P2S    ABASIS      S 
                                         1400     1410     1200     1210     1080     1600     1650     1700   
                                           T        V       H0       H01     AOSYM     SMH    MOLCAS    OPER   

 PROGRAMS   *        TOTAL       INT
 CPU TIMES  *        12.15     12.08
 REAL TIME  *        13.76 SEC
 DISK USED  *         2.62 GB      
 GA USED    *         0.00 MB       (max)       0.00 MB       (current)
 **********************************************************************************************************************************

1PROGRAM * RHF-SCF (CLOSED SHELL)       Authors: W. Meyer, H.-J. Werner


 NUMBER OF ELECTRONS:      16+   16-
 CONVERGENCE THRESHOLDS:    1.00E-05 (Density)    1.00E-07 (Energy)
 MAX. NUMBER OF ITERATIONS:       60
 INTERPOLATION TYPE:            DIIS
 INTERPOLATION STEPS:              2 (START)      1 (STEP)
 LEVEL SHIFTS:                  0.00 (CLOSED)  0.00 (OPEN) 



 Orbital guess generated from atomic densities. Full valence occupancy:   18   4

 Molecular orbital dump at record        2100.2

 Initial alpha occupancy:  13   3
 Initial beta  occupancy:  13   3
 Wave function symmetry:    1

 ITERATION    DDIFF          GRAD             ENERGY        2-EL.EN.            DIPOLE MOMENTS         DIIS
    1      0.000D+00      0.000D+00      -263.66716479    398.315346   -1.19655   -0.00012    0.00000    0
    2      0.000D+00      0.620D-02      -263.73110126    393.576594   -0.81295   -0.00006    0.00000    1
    3      0.996D-02      0.415D-02      -263.77187451    396.100012   -0.89681   -0.00005    0.00000    2
    4      0.405D-02      0.404D-03      -263.77237234    395.907706   -0.89806   -0.00006    0.00000    3
    5      0.489D-03      0.119D-03      -263.77243071    395.899057   -0.89347   -0.00005    0.00000    4
    6      0.183D-03      0.484D-04      -263.77243820    395.915749   -0.89425   -0.00006    0.00000    5
    7      0.613D-04      0.114D-04      -263.77243893    395.907153   -0.89387   -0.00006    0.00000    6
    8      0.199D-04      0.252D-05      -263.77243897    395.908518   -0.89390   -0.00006    0.00000    7
    9      0.532D-05      0.843D-06      -263.77243898    395.908288   -0.89387   -0.00006    0.00000    0

 Final occupancy:  13   3

 !RHF STATE 1.1 Energy               -263.772438975560
 Nuclear energy                       101.04158882
 One-electron energy                 -562.76817196
 Two-electron energy                  197.95414416
 Virial quotient                       -1.00184321
 !RHF STATE 1.1 Dipole moment          -0.89387359    -0.00005528     0.00000000
 Dipole moment /Debye                  -2.27185123    -0.00014051     0.00000000

 Orbital energies:

         1.1          2.1          3.1          4.1          5.1          6.1          7.1          8.1          9.1         10.1
    -20.635621   -20.635576   -20.575645   -11.445438    -1.513415    -1.460523    -1.361217    -0.784712    -0.727451    -0.726155

        11.1         12.1         13.1         14.1         15.1
     -0.697740    -0.593718    -0.527852     0.026240     0.047666

         1.2          2.2          3.2          4.2          5.2
     -0.697824    -0.527903    -0.519153     0.082392     0.168064


 **********************************************************************************************************************************
 DATASETS  * FILE   NREC   LENGTH (MB)   RECORD NAMES
              1      18        3.76       500      610      700      900      950      970     1000      129      960     1100   
                                          VAR    BASINP    GEOM    SYMINP    ZMAT    AOBASIS   BASIS     P2S    ABASIS      S 
                                         1400     1410     1200     1210     1080     1600     1650     1700   
                                           T        V       H0       H01     AOSYM     SMH    MOLCAS    OPER   

              2       3        0.96       700     1000     2100   
                                         GEOM     BASIS     RHF  

 PROGRAMS   *        TOTAL        HF       INT
 CPU TIMES  *        16.91      4.76     12.08
 REAL TIME  *        18.88 SEC
 DISK USED  *         2.64 GB      
 SF USED    *         0.12 MB      
 GA USED    *         0.00 MB       (max)       0.00 MB       (current)
 **********************************************************************************************************************************


1PROGRAM * CCSD (Closed-shell coupled cluster)     Authors: C. Hampel, H.-J. Werner, 1991, M. Deegan, P.J. Knowles, 1992

                                  CCSD-F12 implementation by  H.-J. Werner, 2007

                   Density fitting integral evaluation by F.R. Manby, 2003,2007, G. Knizia, 2010

 Basis set CC-PVTZ/JKFIT generated.      Number of basis functions:   376 
 Basis set AUG-CC-PVTZ/MP2FIT generated. Number of basis functions:   516 

 Convergence thresholds:  THRVAR = 1.00D-08  THRDEN = 1.00D-06

 CCSD(T)     terms to be evaluated (factor= 1.000)


 Number of core orbitals:           4 (   4   0 )
 Number of closed-shell orbitals:  12 (   9   3 )
 Number of external orbitals:     214 ( 139  75 )

 Molecular orbitals read from record     2100.2  Type=RHF/CANONICAL (state 1.1)

 MP2-F12 correlation treatment (H.-J. Werner, 2006)
 --------------------------------------------------

 Using MP2-F12 with ansatz 3C(FIX)

 Using projected zeroth-order Hamiltonian (+Z)

 FOCKRIB=T FOCKRIC=T FOCKRIP=T CABSP=T CABSA=T CABSK=T CABSF=T GBC=F EBC=F DMAT=T NOFIK=T NOPAO=1 SOLVE=-1  USEPAO=0
 EXCH_A= T EXCH_B= F EXCH_C= F EXCH_P= F
 
 Geminal basis:    OPTFULL  GEM_TYPE=SLATER  BETA=1.0  NGEM=6

 Optimizing Gaussian exponents for each gem_beta

 Geminal optimization for beta= 1.0000
 Weight function:   m=0, omega= 1.4646

 Augmented Hessian optimization of geminal fit. Trust ratio= 0.40000
 Convergence reached after   2 iterations. Final gradient= 8.24D-16, Step= 4.32D-06, Delta= 1.28D-09
 
 Alpha:                 0.19532     0.81920     2.85917     9.50073    35.69989   197.79328
 Coeff:                 0.27070     0.30552     0.18297     0.10986     0.06810     0.04224
 

 Symmetry turned off. Reference energy:       -263.772438975560

 All pairs explicitly correlated. Number of r12-pairs:           78
 
 AO(A)-basis ORBITAL           loaded. Number of functions:     230
 RI(R)-basis CC-PVTZ/JKFIT     loaded. Number of functions:     376
 DF-basis CC-PVTZ/JKFIT        loaded. Number of functions:     376

 Screening thresholds:   THRAO=  1.00D-10  THRMO=  1.00D-09  THRPROD=  1.00D-09
                         THRSW=  1.00D-05  THROV=  1.00D-12  THRF12=   1.00D-08

 CPU time for Fock operators                      1.06 sec
 
 Construction of ABS:
 Smallest eigenvalue of S          2.55E-04  (threshold= 1.00E-08)
 Ratio eigmin/eigmax               1.82E-06  (threshold= 1.00E-09)
 Smallest eigenvalue of S kept     2.55E-04  (threshold= 2.55E-04, 0 functions deleted, 376 kept)
 
 Construction of CABS:
 Smallest eigenvalue of S          2.27E-08  (threshold= 1.00E-08)
 Ratio eigmin/eigmax               2.27E-08  (threshold= 1.00E-09)
 Smallest eigenvalue of S kept     2.27E-08  (threshold= 2.27E-08, 0 functions deleted, 376 kept)
 
 CPU time for CABS singles                        0.18 sec

 CABS-singles contribution of  -0.01592294 patched into reference energy.
 New reference energy        -263.78836192
 
 AO(A)-basis ORBITAL           loaded. Number of functions:     230
 RI(R)-basis CC-PVTZ/JKFIT     loaded. Number of functions:     376
 DF-basis AUG-CC-PVTZ/MP2FIT   loaded. Number of functions:     516

 Screening thresholds:   THRAO=  1.00D-10  THRMO=  1.00D-09  THRPROD=  1.00D-09
                         THRSW=  1.00D-05  THROV=  1.00D-12  THRF12=   1.00D-08

 CPU time for 3-index integral evaluation         3.42 sec
 CPU time for first  half transformation          0.37 sec ( 8730.3 MFLOP/sec)
 CPU time for second half transformation          0.03 sec ( 3806.6 MFLOP/sec)
 CPU time for sorting                             0.12 sec
 CPU time for fitting                             0.05 sec (28372.2 MFLOP/sec)
 CPU time for tilde quantities                    0.08 sec (23111.0 MFLOP/sec)
 CPU time for assembly                            0.92 sec (28250.7 MFLOP/sec)
 CPU time for tranop_f12                          1.05 sec (31603.1 MFLOP/sec)
 CPU time for f12 integrals (total)               8.33 sec
 F12-matrices built in  3 passes.
 F12-matrices built in  3 passes.
 F12-matrices built in  3 passes.
 F12-matrices built in  3 passes.
 FC-matrix built in  3 passes.
 CPU time for f12 matrices (total)                1.15 sec

 Diagonal F12 approximation with fixed coefficients:  TSING= 0.500,  TTRIP= 0.250 (scaled by -1/beta)

 DF-MP2-F12 energy corrections:
 ------------------------------
 Approx.                                    Singlet             Triplet             Total
 DF-MP2-F12/3*C(DX,FIX)                -0.097365784451     -0.016950884802     -0.114316669253
 DF-MP2-F12/3*C(FIX)                   -0.079802364747     -0.013428689083     -0.093231053830
 DF-MP2-F12/3C(FIX)                    -0.080170619186     -0.013459538818     -0.093630158004

 DF-MP2-F12 correlation energies:
 --------------------------------
 Approx.                                    Singlet             Triplet             Ecorr            Total Energy
 DF-MP2                                -0.537721836705     -0.343671372863     -0.881393209568   -264.669755127234
 DF-MP2-F12/3*C(DX,FIX)                -0.635087621156     -0.360622257666     -0.995709878822   -264.784071796487
 DF-MP2-F12/3*C(FIX)                   -0.617524201452     -0.357100061947     -0.974624263399   -264.762986181064
 DF-MP2-F12/3C(FIX)                    -0.617892455891     -0.357130911681     -0.975023367572   -264.763385285237

 SCS-DF-MP2 energies (F_SING= 1.20000  F_TRIP= 0.62222  F_PARALLEL= 0.33333):
 ----------------------------------------------------------------------------
 SCS-DF-MP2                            -0.859106169383   -264.647468087049
 SCS-DF-MP2-F12/3*C(DX,FIX)            -0.986492327935   -264.774854245600
 SCS-DF-MP2-F12/3*C(FIX)               -0.963224635842   -264.751586553508
 SCS-DF-MP2-F12/3C(FIX)                -0.963685736560   -264.752047654225

 Symmetry restored.
 Symmetry transformation completed.

 Number of N-1 electron functions:              12
 Number of N-2 electron functions:              78
 Number of singly external CSFs:              1476
 Number of doubly external CSFs:           1686804
 Total number of CSFs:                     1688281

 Pair and operator lists are different

 Length of J-op  integral file:             466.42 MB
 Length of K-op  integral file:             526.62 MB
 Length of 3-ext integral record:             0.00 MB

 Memory could be reduced to 76.61 Mwords without degradation in triples

 Integral transformation finished. Total CPU:   7.78 sec, npass=  1  Memory used:  24.61 MW

 Reference energy:                   -263.78836192

 Adding F12 terms to K(Cij), methodcc=6,  factor=1.0

 ITER.      SQ.NORM     CORR.ENERGY   TOTAL ENERGY   ENERGY CHANGE        DEN1      VAR(S)    VAR(P)  DIIS     TIME
   1      1.20210679    -0.86334728  -264.65170920     0.01806078     0.04659330  0.72D-02  0.55D-02  1  1    23.80
   2      1.21639474    -0.85916936  -264.64753128     0.00417792    -0.02010701  0.88D-04  0.59D-03  2  2    28.63
   3      1.22176543    -0.85927570  -264.64763761    -0.00010633    -0.00237008  0.13D-03  0.32D-04  3  3    33.23
   4      1.22457851    -0.85914776  -264.64750967     0.00012794    -0.00141351  0.77D-05  0.40D-05  4  4    36.49
   5      1.22560739    -0.85911053  -264.64747245     0.00003722    -0.00036482  0.56D-06  0.28D-06  5  5    39.67
   6      1.22576730    -0.85908381  -264.64744573     0.00002672    -0.00000718  0.41D-07  0.24D-07  6  6    42.88
   7      1.22579659    -0.85908141  -264.64744333     0.00000240    -0.00000598  0.29D-08  0.40D-08  6  4    46.10
   8      1.22579695    -0.85908089  -264.64744281     0.00000052     0.00000190  0.40D-09  0.28D-09  6  1    49.30
   9      1.22579753    -0.85908096  -264.64744288    -0.00000007     0.00000059  0.31D-10  0.24D-10  6  2    52.48

 Norm of t1 vector:      0.10613225      S-energy:    -0.00000003      T1 diagnostic:  0.01531887
                                                                       D1 diagnostic:  0.04532679

 Adding energy correction from Wij-K(Fij), methodcc=6  factor=1.0
 
  CCSD correlation energy              -0.859080960586
  MP2-F12 correction (uncoupled)       -0.092465658430
  C*T doubles correction               -0.001474356158
  f12b correction                       0.015407988206


 Total CPU time for triples:     81.04 sec


 RESULTS
 =======

  Reference energy                   -263.772438975560
  F12 singles correction               -0.015922942106

 F12 singles corrections added to reference energy

  New reference energy               -263.788361917666

  F12a singlet correction              -0.080366066216
  F12a triplet correction              -0.013573948372
  F12a total correction                -0.093940014588

 F12a corrections for ansatz F12/3C(FIX) added to CCSD energy
 
  CCSD-F12a singlet pair energy        -0.641748778418
  CCSD-F12a triplet pair energy        -0.311272163665
  CCSD-F12a correlation energy         -0.953020975174

  Triples (T) contribution             -0.037755070281
  Total correlation energy             -0.990776045455

  CCSD-F12a total energy             -264.741382892840
  CCSD[T]-F12a energy                -264.781676679251
  CCSD-T-F12a energy                 -264.778205539687
 !CCSD(T)-F12a total energy          -264.779137963121

 F12b corrections for ansatz F12/3C(FIX) added to CCSD(T)-F12a energy

  CCSD-F12b singlet pair energy        -0.627567882202
  CCSD-F12b triplet pair energy        -0.310045071674
  CCSD-F12b correlation energy         -0.937612986968

  Triples (T) contribution             -0.037755070281
  Total correlation energy             -0.975368057249

  CCSD-F12b total energy             -264.725974904634
  CCSD[T]-F12b energy                -264.766268691045
  CCSD-T-F12b energy                 -264.762797551481
 !CCSD(T)-F12b total energy          -264.763729974915

 Timing summary (sec):

 STEP                 CPU(USER)    SYS     CPU(TOT)    WALL
 Transformation          7.82      0.56      8.38      8.36
 CCSD iterations        33.45      1.58     35.03     35.07
 Triples                81.04      1.58     82.62     82.59
 MP2-F12                11.23      1.24     12.47     12.48
 F12b energy             2.14      0.04      2.18      2.18

 Program statistics:

 Available memory in ccsd:                99998934
 Min. memory needed in ccsd:               4458306
 Max. memory used in ccsd:                 5958390
 Max. memory used in cckext:               6352469 (10 integral passes)



 **********************************************************************************************************************************
 DATASETS  * FILE   NREC   LENGTH (MB)   RECORD NAMES
              1      20      269.66       500      610      700      900      950      970     1000      129      960     1100   
                                          VAR    BASINP    GEOM    SYMINP    ZMAT    AOBASIS   BASIS     P2S    ABASIS      S 
                                         1400     1410     1200     1210     1080     1600     1650     1700      960(1)  1380   
                                           T        V       H0       H01     AOSYM     SMH    MOLCAS    OPER    ABASIS    JKOP   

              2       5        1.55       700     1000     2100     7360     7350   
                                         GEOM     BASIS     RHF    F12ABS    EF12   

 PROGRAMS   *        TOTAL   CCSD(T)        HF       INT
 CPU TIMES  *       152.83    135.91      4.76     12.08
 REAL TIME  *       159.94 SEC
 DISK USED  *         3.08 GB      
 SF USED    *         1.53 GB      
 GA USED    *         2.40 MB       (max)       0.00 MB       (current)
 **********************************************************************************************************************************

     CCSD(T)-F12        HF-SCF  
   -264.76372997   -263.77243898
 **********************************************************************************************************************************
 Variable memory released
