
 Primary working directories    : /scratch/kee
 Secondary working directories  : /scratch/kee
 Wavefunction directory         : /home/kee/wfu/
 Main file repository           : /scratch/kee/

 ARCHNAME  : Linux/x86_64
 FC        : /opt/intel/composer_xe_2015.0.090/bin/intel64/ifort
 FCVERSION : 15.0.0
 BLASLIB   : -L/opt/intel/mkl/lib/intel64 -lmkl_intel_ilp64 -lmkl_sequential -lmkl_core
 id        : emory

 Nodes     nprocs
 node24       3
 Number of processes for MPI-2 version of Molpro:   nprocs(total)=    4   nprocs(compute)=    3   nprocs(helper)=    1
 ga_uses_ma=false, calling ma_init with nominal heap.
 GA-space will be limited to   8.0 MW (determined by -G option)

 Using customized tuning parameters: mindgm=7; mindgv=32; mindgc=1; mindgr=1; noblas=0; mincuda=1000; minvec=7
 default implementation of scratch files=sf  

 ***,co2h2o
 memory,100,m
 basis avtz
 geomtype = xyz
 geometry = {
 6
    -264.76489694
 O     0.82869278    1.16169550    0.00000000
 O     0.82658011   -1.16233555    0.00000000
 O    -1.54123463    0.00062187    0.00000000
 H    -2.12486764    0.76121652    0.00000000
 H    -2.12459953   -0.76018005    0.00000000
 C     0.80876519   -0.00029961    0.00000000
 }
 hf
 ccsd(t)-f12
 ---

 Variables initialized (665), CPU time= 0.01 sec
 Commands  initialized (462), CPU time= 0.01 sec, 486 directives.
 Default parameters read. Elapsed time= 0.06 sec

 Checking input...
 Passed
1


                                         ***  PROGRAM SYSTEM MOLPRO  ***
                         Copyright, University College Cardiff Consultants Limited, 2008

                                    Version 2010.1 linked 9 Dec 2014 15:06:28 


 **********************************************************************************************************************************
 LABEL *   co2h2o                                                                        
 Linux-2.6.32-504.el6.x86_64/node24(x86_64) 64 bit mpp version                           DATE: 07-Dec-16          TIME: 00:00:29  
 **********************************************************************************************************************************

 Patch level:      19
 **********************************************************************************************************************************

 Variable memory set to  100000000 words,  buffer space   230000 words

 SETTING BASIS          =    AVTZ
 SETTING GEOMTYPE       =    XYZ

Geometry recognized as XYZ



 Recomputing integrals since basis changed


 Using spherical harmonics

 Library entry O      S aug-cc-pVTZ          selected for orbital group  1
 Library entry O      P aug-cc-pVTZ          selected for orbital group  1
 Library entry O      D aug-cc-pVTZ          selected for orbital group  1
 Library entry O      F aug-cc-pVTZ          selected for orbital group  1
 Library entry H      S aug-cc-pVTZ          selected for orbital group  2
 Library entry H      P aug-cc-pVTZ          selected for orbital group  2
 Library entry H      D aug-cc-pVTZ          selected for orbital group  2
 Library entry C      S aug-cc-pVTZ          selected for orbital group  3
 Library entry C      P aug-cc-pVTZ          selected for orbital group  3
 Library entry C      D aug-cc-pVTZ          selected for orbital group  3
 Library entry C      F aug-cc-pVTZ          selected for orbital group  3

1PROGRAM * SEWARD (Integral evaluation for generally contracted gaussian basis sets)     Author: Roland Lindh, 1990

 Geometry written to block  1 of record 700


 Point group  Cs  



 ATOMIC COORDINATES

 NR  ATOM    CHARGE       X              Y              Z

   1  O       8.00    1.566002401    2.195286343    0.000000000
   2  O       8.00    1.562010034   -2.196495862    0.000000000
   3  O       8.00   -2.912511355    0.001175164    0.000000000
   4  H       1.00   -4.015417905    1.438490750    0.000000000
   5  H       1.00   -4.014911251   -1.436532105    0.000000000
   6  C       6.00    1.528344714   -0.000566181    0.000000000

 Bond lengths in Bohr (Angstrom)

 1-6  2.196175405  2-6  2.196187724  3-4  1.811706088  3-5  1.811708509
     (1.162165971)     (1.162172490)     (0.958713571)     (0.958714852)

 Bond angles

  1-6-2  178.13918425   4-3-5  105.01947441

 NUCLEAR CHARGE:                   32
 NUMBER OF PRIMITIVE AOS:         322
 NUMBER OF SYMMETRY AOS:          282
 NUMBER OF CONTRACTIONS:          230   ( 152A'  +  78A"  )
 NUMBER OF CORE ORBITALS:           4   (   4A'  +   0A"  )
 NUMBER OF VALENCE ORBITALS:       18   (  14A'  +   4A"  )


 NUCLEAR REPULSION ENERGY  111.28447971


 Eigenvalues of metric

         1 0.210E-03 0.233E-03 0.277E-03 0.311E-03 0.474E-03 0.741E-03 0.832E-03 0.135E-02
         2 0.293E-02 0.346E-02 0.490E-02 0.115E-01 0.123E-01 0.238E-01 0.287E-01 0.291E-01


 Contracted 2-electron integrals neglected if value below      1.0D-11
 AO integral compression algorithm  1   Integral accuracy      1.0D-11

     791.151 MB (compressed) written to integral file ( 47.7%)

     Node minimum: 256.639 MB, node maximum: 268.698 MB


 NUMBER OF SORTED TWO-ELECTRON INTEGRALS:   59950380.     BUFFER LENGTH:  32768
 NUMBER OF SEGMENTS:   4  SEGMENT LENGTH:   15995235      RECORD LENGTH: 524288

 Memory used in sort:      16.55 MW

 SORT1 READ   207531521. AND WROTE    57288100. INTEGRALS IN    166 RECORDS. CPU TIME:     3.56 SEC, REAL TIME:     4.16 SEC
 SORT2 READ   172262125. AND WROTE   179836431. INTEGRALS IN   3075 RECORDS. CPU TIME:     1.24 SEC, REAL TIME:     1.76 SEC

 Node minimum:    59940574.  Node maximum:    59950380. integrals

 OPERATOR DM      FOR CENTER  0  COORDINATES:    0.000000    0.000000    0.000000


 **********************************************************************************************************************************
 DATASETS  * FILE   NREC   LENGTH (MB)   RECORD NAMES
              1      18        3.74       500      610      700      900      950      970     1000      129      960     1100   
                                          VAR    BASINP    GEOM    SYMINP    ZMAT    AOBASIS   BASIS     P2S    ABASIS      S 
                                         1400     1410     1200     1210     1080     1600     1650     1700   
                                           T        V       H0       H01     AOSYM     SMH    MOLCAS    OPER   

 PROGRAMS   *        TOTAL       INT
 CPU TIMES  *        10.26     10.15
 REAL TIME  *        11.84 SEC
 DISK USED  *         2.84 GB      
 GA USED    *         0.00 MB       (max)       0.00 MB       (current)
 **********************************************************************************************************************************

1PROGRAM * RHF-SCF (CLOSED SHELL)       Authors: W. Meyer, H.-J. Werner


 NUMBER OF ELECTRONS:      16+   16-
 CONVERGENCE THRESHOLDS:    1.00E-05 (Density)    1.00E-07 (Energy)
 MAX. NUMBER OF ITERATIONS:       60
 INTERPOLATION TYPE:            DIIS
 INTERPOLATION STEPS:              2 (START)      1 (STEP)
 LEVEL SHIFTS:                  0.00 (CLOSED)  0.00 (OPEN) 



 Orbital guess generated from atomic densities. Full valence occupancy:   18   4

 Molecular orbital dump at record        2100.2

 Initial alpha occupancy:  13   3
 Initial beta  occupancy:  13   3
 Wave function symmetry:    1

 ITERATION    DDIFF          GRAD             ENERGY        2-EL.EN.            DIPOLE MOMENTS         DIIS
    1      0.000D+00      0.000D+00      -263.66615778    419.207805   -1.30356   -0.00003    0.00000    0
    2      0.000D+00      0.607D-02      -263.72885737    414.476094   -1.00230    0.00001    0.00000    1
    3      0.985D-02      0.399D-02      -263.76619769    416.816396   -1.02846    0.00004    0.00000    2
    4      0.392D-02      0.412D-03      -263.76672899    416.682261   -1.02198    0.00002    0.00000    3
    5      0.503D-03      0.127D-03      -263.76679105    416.647322   -1.01570    0.00003    0.00000    4
    6      0.190D-03      0.512D-04      -263.76679931    416.668279   -1.01593    0.00002    0.00000    5
    7      0.626D-04      0.108D-04      -263.76680002    416.660057   -1.01553    0.00003    0.00000    6
    8      0.202D-04      0.245D-05      -263.76680006    416.661610   -1.01560    0.00002    0.00000    7
    9      0.503D-05      0.833D-06      -263.76680007    416.661290   -1.01559    0.00003    0.00000    0

 Final occupancy:  13   3

 !RHF STATE 1.1 Energy               -263.766800066430
 Nuclear energy                       111.28447971
 One-electron energy                 -583.38192457
 Two-electron energy                  208.33064479
 Virial quotient                       -1.00148921
 !RHF STATE 1.1 Dipole moment          -1.01558882     0.00002553     0.00000000
 Dipole moment /Debye                  -2.58120024     0.00006490     0.00000000

 Orbital energies:

         1.1          2.1          3.1          4.1          5.1          6.1          7.1          8.1          9.1         10.1
    -20.620732   -20.620685   -20.583646   -11.435231    -1.502018    -1.448643    -1.373552    -0.774466    -0.738096    -0.716233

        11.1         12.1         13.1         14.1         15.1
     -0.705685    -0.589242    -0.518293     0.023804     0.047334

         1.2          2.2          3.2          4.2          5.2
     -0.686684    -0.531106    -0.516005     0.082943     0.166759


 **********************************************************************************************************************************
 DATASETS  * FILE   NREC   LENGTH (MB)   RECORD NAMES
              1      18        3.76       500      610      700      900      950      970     1000      129      960     1100   
                                          VAR    BASINP    GEOM    SYMINP    ZMAT    AOBASIS   BASIS     P2S    ABASIS      S 
                                         1400     1410     1200     1210     1080     1600     1650     1700   
                                           T        V       H0       H01     AOSYM     SMH    MOLCAS    OPER   

              2       3        0.96       700     1000     2100   
                                         GEOM     BASIS     RHF  

 PROGRAMS   *        TOTAL        HF       INT
 CPU TIMES  *        14.74      4.48     10.15
 REAL TIME  *        16.75 SEC
 DISK USED  *         2.86 GB      
 SF USED    *         0.12 MB      
 GA USED    *         0.00 MB       (max)       0.00 MB       (current)
 **********************************************************************************************************************************


1PROGRAM * CCSD (Closed-shell coupled cluster)     Authors: C. Hampel, H.-J. Werner, 1991, M. Deegan, P.J. Knowles, 1992

                                  CCSD-F12 implementation by  H.-J. Werner, 2007

                   Density fitting integral evaluation by F.R. Manby, 2003,2007, G. Knizia, 2010

 Basis set CC-PVTZ/JKFIT generated.      Number of basis functions:   376 
 Basis set AUG-CC-PVTZ/MP2FIT generated. Number of basis functions:   516 

 Convergence thresholds:  THRVAR = 1.00D-08  THRDEN = 1.00D-06

 CCSD(T)     terms to be evaluated (factor= 1.000)


 Number of core orbitals:           4 (   4   0 )
 Number of closed-shell orbitals:  12 (   9   3 )
 Number of external orbitals:     214 ( 139  75 )

 Molecular orbitals read from record     2100.2  Type=RHF/CANONICAL (state 1.1)

 MP2-F12 correlation treatment (H.-J. Werner, 2006)
 --------------------------------------------------

 Using MP2-F12 with ansatz 3C(FIX)

 Using projected zeroth-order Hamiltonian (+Z)

 FOCKRIB=T FOCKRIC=T FOCKRIP=T CABSP=T CABSA=T CABSK=T CABSF=T GBC=F EBC=F DMAT=T NOFIK=T NOPAO=1 SOLVE=-1  USEPAO=0
 EXCH_A= T EXCH_B= F EXCH_C= F EXCH_P= F
 
 Geminal basis:    OPTFULL  GEM_TYPE=SLATER  BETA=1.0  NGEM=6

 Optimizing Gaussian exponents for each gem_beta

 Geminal optimization for beta= 1.0000
 Weight function:   m=0, omega= 1.4646

 Augmented Hessian optimization of geminal fit. Trust ratio= 0.40000
 Convergence reached after   2 iterations. Final gradient= 8.24D-16, Step= 4.32D-06, Delta= 1.28D-09
 
 Alpha:                 0.19532     0.81920     2.85917     9.50073    35.69989   197.79328
 Coeff:                 0.27070     0.30552     0.18297     0.10986     0.06810     0.04224
 

 Symmetry turned off. Reference energy:       -263.766800066430

 All pairs explicitly correlated. Number of r12-pairs:           78
 
 AO(A)-basis ORBITAL           loaded. Number of functions:     230
 RI(R)-basis CC-PVTZ/JKFIT     loaded. Number of functions:     376
 DF-basis CC-PVTZ/JKFIT        loaded. Number of functions:     376

 Screening thresholds:   THRAO=  1.00D-10  THRMO=  1.00D-09  THRPROD=  1.00D-09
                         THRSW=  1.00D-05  THROV=  1.00D-12  THRF12=   1.00D-08

 CPU time for Fock operators                      1.08 sec
 
 Construction of ABS:
 Smallest eigenvalue of S          2.36E-04  (threshold= 1.00E-08)
 Ratio eigmin/eigmax               1.68E-06  (threshold= 1.00E-09)
 Smallest eigenvalue of S kept     2.36E-04  (threshold= 2.36E-04, 0 functions deleted, 376 kept)
 
 Construction of CABS:
 Smallest eigenvalue of S          2.23E-08  (threshold= 1.00E-08)
 Ratio eigmin/eigmax               2.23E-08  (threshold= 1.00E-09)
 Smallest eigenvalue of S kept     2.23E-08  (threshold= 2.23E-08, 0 functions deleted, 376 kept)
 
 CPU time for CABS singles                        0.19 sec

 CABS-singles contribution of  -0.01590882 patched into reference energy.
 New reference energy        -263.78270889
 
 AO(A)-basis ORBITAL           loaded. Number of functions:     230
 RI(R)-basis CC-PVTZ/JKFIT     loaded. Number of functions:     376
 DF-basis AUG-CC-PVTZ/MP2FIT   loaded. Number of functions:     516

 Screening thresholds:   THRAO=  1.00D-10  THRMO=  1.00D-09  THRPROD=  1.00D-09
                         THRSW=  1.00D-05  THROV=  1.00D-12  THRF12=   1.00D-08

 CPU time for 3-index integral evaluation         3.48 sec
 CPU time for first  half transformation          0.33 sec ( 9122.4 MFLOP/sec)
 CPU time for sorting                             0.16 sec
 CPU time for fitting                             0.07 sec (19900.7 MFLOP/sec)
 CPU time for tilde quantities                    0.06 sec (30814.7 MFLOP/sec)
 CPU time for assembly                            0.89 sec (26876.0 MFLOP/sec)
 CPU time for tranop_f12                          0.95 sec (31711.9 MFLOP/sec)
 CPU time for f12 integrals (total)               8.36 sec
 F12-matrices built in  3 passes.
 F12-matrices built in  3 passes.
 F12-matrices built in  3 passes.
 F12-matrices built in  3 passes.
 FC-matrix built in  3 passes.
 CPU time for f12 matrices (total)                0.55 sec

 Diagonal F12 approximation with fixed coefficients:  TSING= 0.500,  TTRIP= 0.250 (scaled by -1/beta)

 DF-MP2-F12 energy corrections:
 ------------------------------
 Approx.                                    Singlet             Triplet             Total
 DF-MP2-F12/3*C(DX,FIX)                -0.097444213625     -0.017093054826     -0.114537268451
 DF-MP2-F12/3*C(FIX)                   -0.079823958109     -0.013579778142     -0.093403736251
 DF-MP2-F12/3C(FIX)                    -0.080200666206     -0.013627513553     -0.093828179759

 DF-MP2-F12 correlation energies:
 --------------------------------
 Approx.                                    Singlet             Triplet             Ecorr            Total Energy
 DF-MP2                                -0.537930477358     -0.346198146463     -0.884128623820   -264.666837513912
 DF-MP2-F12/3*C(DX,FIX)                -0.635374690983     -0.363291201289     -0.998665892271   -264.781374782362
 DF-MP2-F12/3*C(FIX)                   -0.617754435467     -0.359777924605     -0.977532360071   -264.760241250162
 DF-MP2-F12/3C(FIX)                    -0.618131143564     -0.359825660016     -0.977956803580   -264.760665693671

 SCS-DF-MP2 energies (F_SING= 1.20000  F_TRIP= 0.62222  F_PARALLEL= 0.33333):
 ----------------------------------------------------------------------------
 SCS-DF-MP2                            -0.860928752850   -264.643637642942
 SCS-DF-MP2-F12/3*C(DX,FIX)            -0.988497487759   -264.771206377850
 SCS-DF-MP2-F12/3*C(FIX)               -0.965167142314   -264.747876032405
 SCS-DF-MP2-F12/3C(FIX)                -0.965648894064   -264.748357784156

 Symmetry restored.
 Symmetry transformation completed.

 Number of N-1 electron functions:              12
 Number of N-2 electron functions:              78
 Number of singly external CSFs:              1476
 Number of doubly external CSFs:           1686804
 Total number of CSFs:                     1688281

 Pair and operator lists are different

 Length of J-op  integral file:             466.42 MB
 Length of K-op  integral file:             526.62 MB
 Length of 3-ext integral record:             0.00 MB

 Memory could be reduced to 76.61 Mwords without degradation in triples

 Integral transformation finished. Total CPU:   4.79 sec, npass=  1  Memory used:  24.61 MW

 Reference energy:                   -263.78270889

 Adding F12 terms to K(Cij), methodcc=6,  factor=1.0

 ITER.      SQ.NORM     CORR.ENERGY   TOTAL ENERGY   ENERGY CHANGE        DEN1      VAR(S)    VAR(P)  DIIS     TIME
   1      1.20172645    -0.86583256  -264.64854145     0.01830637     0.04669963  0.72D-02  0.55D-02  1  1    18.41
   2      1.21596525    -0.86171506  -264.64442395     0.00411750    -0.02008531  0.91D-04  0.58D-03  2  2    21.50
   3      1.22133244    -0.86184518  -264.64455407    -0.00013012    -0.00233279  0.13D-03  0.31D-04  3  3    24.57
   4      1.22415849    -0.86171279  -264.64442168     0.00013240    -0.00141196  0.82D-05  0.40D-05  4  4    27.69
   5      1.22520510    -0.86167646  -264.64438535     0.00003633    -0.00036503  0.70D-06  0.28D-06  5  5    30.80
   6      1.22537397    -0.86164907  -264.64435796     0.00002739    -0.00000745  0.51D-07  0.27D-07  6  6    33.91
   7      1.22540828    -0.86164610  -264.64435499     0.00000297    -0.00000673  0.58D-08  0.41D-08  6  2    37.02
   8      1.22540936    -0.86164575  -264.64435464     0.00000035     0.00000198  0.51D-09  0.37D-09  6  1    40.12
   9      1.22540986    -0.86164586  -264.64435475    -0.00000011     0.00000081  0.64D-10  0.30D-10  6  4    43.23

 Norm of t1 vector:      0.10703663      S-energy:     0.00000008      T1 diagnostic:  0.01544941
                                                                       D1 diagnostic:  0.04694312

 Adding energy correction from Wij-K(Fij), methodcc=6  factor=1.0
 
  CCSD correlation energy              -0.861645855156
  MP2-F12 correction (uncoupled)       -0.092641935997
  C*T doubles correction               -0.001481734580
  f12b correction                       0.015431175779


 Total CPU time for triples:     87.96 sec


 RESULTS
 =======

  Reference energy                   -263.766800066430
  F12 singles correction               -0.015908823661

 F12 singles corrections added to reference energy

  New reference energy               -263.782708890091

  F12a singlet correction              -0.080392226236
  F12a triplet correction              -0.013731444340
  F12a total correction                -0.094123670576

 F12a corrections for ansatz F12/3C(FIX) added to CCSD energy
 
  CCSD-F12a singlet pair energy        -0.641561791690
  CCSD-F12a triplet pair energy        -0.314207813761
  CCSD-F12a correlation energy         -0.955769525732

  Triples (T) contribution             -0.038141847763
  Total correlation energy             -0.993911373495

  CCSD-F12a total energy             -264.738478415823
  CCSD[T]-F12a energy                -264.779165974910
  CCSD-T-F12a energy                 -264.775696970438
 !CCSD(T)-F12a total energy          -264.776620263586

 F12b corrections for ansatz F12/3C(FIX) added to CCSD(T)-F12a energy

  CCSD-F12b singlet pair energy        -0.627375800658
  CCSD-F12b triplet pair energy        -0.312962629015
  CCSD-F12b correlation energy         -0.940338349953

  Triples (T) contribution             -0.038141847763
  Total correlation energy             -0.978480197716

  CCSD-F12b total energy             -264.723047240045
  CCSD[T]-F12b energy                -264.763734799131
  CCSD-T-F12b energy                 -264.760265794659
 !CCSD(T)-F12b total energy          -264.761189087807

 Timing summary (sec):

 STEP                 CPU(USER)    SYS     CPU(TOT)    WALL
 Transformation          4.82      0.59      5.41      5.41
 CCSD iterations        27.79      1.77     29.56     29.54
 Triples                87.96      2.34     90.30     90.73
 MP2-F12                10.64      1.30     11.94     11.95
 F12b energy             2.06      0.05      2.11      2.10

 Program statistics:

 Available memory in ccsd:                99998934
 Min. memory needed in ccsd:               4458306
 Max. memory used in ccsd:                 5958390
 Max. memory used in cckext:               6352469 (10 integral passes)



 **********************************************************************************************************************************
 DATASETS  * FILE   NREC   LENGTH (MB)   RECORD NAMES
              1      20      269.66       500      610      700      900      950      970     1000      129      960     1100   
                                          VAR    BASINP    GEOM    SYMINP    ZMAT    AOBASIS   BASIS     P2S    ABASIS      S 
                                         1400     1410     1200     1210     1080     1600     1650     1700      960(1)  1380   
                                           T        V       H0       H01     AOSYM     SMH    MOLCAS    OPER    ABASIS    JKOP   

              2       5        1.55       700     1000     2100     7360     7350   
                                         GEOM     BASIS     RHF    F12ABS    EF12   

 PROGRAMS   *        TOTAL   CCSD(T)        HF       INT
 CPU TIMES  *       148.09    133.35      4.48     10.15
 REAL TIME  *       156.82 SEC
 DISK USED  *         3.30 GB      
 SF USED    *         1.53 GB      
 GA USED    *         2.40 MB       (max)       0.00 MB       (current)
 **********************************************************************************************************************************

     CCSD(T)-F12        HF-SCF  
   -264.76118909   -263.76680007
 **********************************************************************************************************************************
 Variable memory released
