
 Primary working directories    : /scratch/kee
 Secondary working directories  : /scratch/kee
 Wavefunction directory         : /home/kee/wfu/
 Main file repository           : /scratch/kee/

 ARCHNAME  : Linux/x86_64
 FC        : /opt/intel/composer_xe_2015.0.090/bin/intel64/ifort
 FCVERSION : 15.0.0
 BLASLIB   : -L/opt/intel/mkl/lib/intel64 -lmkl_intel_ilp64 -lmkl_sequential -lmkl_core
 id        : emory

 Nodes     nprocs
 node24       3
 Number of processes for MPI-2 version of Molpro:   nprocs(total)=    4   nprocs(compute)=    3   nprocs(helper)=    1
 ga_uses_ma=false, calling ma_init with nominal heap.
 GA-space will be limited to   8.0 MW (determined by -G option)

 Using customized tuning parameters: mindgm=7; mindgv=32; mindgc=1; mindgr=1; noblas=0; mincuda=1000; minvec=7
 default implementation of scratch files=sf  

 ***,co2h2o
 memory,100,m
 basis avtz
 geomtype = xyz
 geometry = {
 6
    -264.76489694
 O     0.82869278    1.16169550    0.00000000
 O     0.82658011   -1.16233555    0.00000000
 O    -1.89123460    0.00075911    0.00000000
 H    -2.47486761    0.76135376    0.00000000
 H    -2.47459950   -0.76004281    0.00000000
 C     0.80876519   -0.00029961    0.00000000
 }
 hf
 ccsd(t)-f12
 ---

 Variables initialized (665), CPU time= 0.01 sec
 Commands  initialized (462), CPU time= 0.01 sec, 486 directives.
 Default parameters read. Elapsed time= 0.05 sec

 Checking input...
 Passed
1


                                         ***  PROGRAM SYSTEM MOLPRO  ***
                         Copyright, University College Cardiff Consultants Limited, 2008

                                    Version 2010.1 linked 9 Dec 2014 15:06:28 


 **********************************************************************************************************************************
 LABEL *   co2h2o                                                                        
 Linux-2.6.32-504.el6.x86_64/node24(x86_64) 64 bit mpp version                           DATE: 07-Dec-16          TIME: 00:18:45  
 **********************************************************************************************************************************

 Patch level:      19
 **********************************************************************************************************************************

 Variable memory set to  100000000 words,  buffer space   230000 words

 SETTING BASIS          =    AVTZ
 SETTING GEOMTYPE       =    XYZ

Geometry recognized as XYZ



 Recomputing integrals since basis changed


 Using spherical harmonics

 Library entry O      S aug-cc-pVTZ          selected for orbital group  1
 Library entry O      P aug-cc-pVTZ          selected for orbital group  1
 Library entry O      D aug-cc-pVTZ          selected for orbital group  1
 Library entry O      F aug-cc-pVTZ          selected for orbital group  1
 Library entry H      S aug-cc-pVTZ          selected for orbital group  2
 Library entry H      P aug-cc-pVTZ          selected for orbital group  2
 Library entry H      D aug-cc-pVTZ          selected for orbital group  2
 Library entry C      S aug-cc-pVTZ          selected for orbital group  3
 Library entry C      P aug-cc-pVTZ          selected for orbital group  3
 Library entry C      D aug-cc-pVTZ          selected for orbital group  3
 Library entry C      F aug-cc-pVTZ          selected for orbital group  3

1PROGRAM * SEWARD (Integral evaluation for generally contracted gaussian basis sets)     Author: Roland Lindh, 1990

 Geometry written to block  1 of record 700


 Point group  Cs  



 ATOMIC COORDINATES

 NR  ATOM    CHARGE       X              Y              Z

   1  O       8.00    1.566002401    2.195286343    0.000000000
   2  O       8.00    1.562010034   -2.196495862    0.000000000
   3  O       8.00   -3.573915444    0.001434510    0.000000000
   4  H       1.00   -4.676821994    1.438750096    0.000000000
   5  H       1.00   -4.676315340   -1.436272759    0.000000000
   6  C       6.00    1.528344714   -0.000566181    0.000000000

 Bond lengths in Bohr (Angstrom)

 1-6  2.196175405  2-6  2.196187724  3-4  1.811706088  3-5  1.811708509
     (1.162165971)     (1.162172490)     (0.958713571)     (0.958714852)

 Bond angles

  1-6-2  178.13918425   4-3-5  105.01947441

 NUCLEAR CHARGE:                   32
 NUMBER OF PRIMITIVE AOS:         322
 NUMBER OF SYMMETRY AOS:          282
 NUMBER OF CONTRACTIONS:          230   ( 152A'  +  78A"  )
 NUMBER OF CORE ORBITALS:           4   (   4A'  +   0A"  )
 NUMBER OF VALENCE ORBITALS:       18   (  14A'  +   4A"  )


 NUCLEAR REPULSION ENERGY  106.42491064


 Eigenvalues of metric

         1 0.235E-03 0.261E-03 0.308E-03 0.323E-03 0.654E-03 0.796E-03 0.871E-03 0.145E-02
         2 0.303E-02 0.346E-02 0.514E-02 0.119E-01 0.128E-01 0.258E-01 0.290E-01 0.292E-01


 Contracted 2-electron integrals neglected if value below      1.0D-11
 AO integral compression algorithm  1   Integral accuracy      1.0D-11

     749.208 MB (compressed) written to integral file ( 45.1%)

     Node minimum: 241.435 MB, node maximum: 257.425 MB


 NUMBER OF SORTED TWO-ELECTRON INTEGRALS:   59950380.     BUFFER LENGTH:  32768
 NUMBER OF SEGMENTS:   4  SEGMENT LENGTH:   15995235      RECORD LENGTH: 524288

 Memory used in sort:      16.55 MW

 SORT1 READ   207531521. AND WROTE    55491592. INTEGRALS IN    160 RECORDS. CPU TIME:     3.64 SEC, REAL TIME:     4.22 SEC
 SORT2 READ   166987039. AND WROTE   179836431. INTEGRALS IN   2946 RECORDS. CPU TIME:     1.36 SEC, REAL TIME:     1.88 SEC

 Node minimum:    59940574.  Node maximum:    59950380. integrals

 OPERATOR DM      FOR CENTER  0  COORDINATES:    0.000000    0.000000    0.000000


 **********************************************************************************************************************************
 DATASETS  * FILE   NREC   LENGTH (MB)   RECORD NAMES
              1      18        3.74       500      610      700      900      950      970     1000      129      960     1100   
                                          VAR    BASINP    GEOM    SYMINP    ZMAT    AOBASIS   BASIS     P2S    ABASIS      S 
                                         1400     1410     1200     1210     1080     1600     1650     1700   
                                           T        V       H0       H01     AOSYM     SMH    MOLCAS    OPER   

 PROGRAMS   *        TOTAL       INT
 CPU TIMES  *        10.37     10.26
 REAL TIME  *        12.26 SEC
 DISK USED  *         2.73 GB      
 GA USED    *         0.00 MB       (max)       0.00 MB       (current)
 **********************************************************************************************************************************

1PROGRAM * RHF-SCF (CLOSED SHELL)       Authors: W. Meyer, H.-J. Werner


 NUMBER OF ELECTRONS:      16+   16-
 CONVERGENCE THRESHOLDS:    1.00E-05 (Density)    1.00E-07 (Energy)
 MAX. NUMBER OF ITERATIONS:       60
 INTERPOLATION TYPE:            DIIS
 INTERPOLATION STEPS:              2 (START)      1 (STEP)
 LEVEL SHIFTS:                  0.00 (CLOSED)  0.00 (OPEN) 



 Orbital guess generated from atomic densities. Full valence occupancy:   18   4

 Molecular orbital dump at record        2100.2

 Initial alpha occupancy:  13   3
 Initial beta  occupancy:  13   3
 Wave function symmetry:    1

 ITERATION    DDIFF          GRAD             ENERGY        2-EL.EN.            DIPOLE MOMENTS         DIIS
    1      0.000D+00      0.000D+00      -263.66957488    409.290025   -1.23253   -0.00009    0.00000    0
    2      0.000D+00      0.613D-02      -263.73270733    404.554093   -0.89733   -0.00003    0.00000    1
    3      0.988D-02      0.407D-02      -263.77171307    407.001185   -0.95433   -0.00002    0.00000    2
    4      0.399D-02      0.407D-03      -263.77222079    406.830381   -0.95234   -0.00003    0.00000    3
    5      0.493D-03      0.121D-03      -263.77228009    406.811443   -0.94719   -0.00002    0.00000    4
    6      0.185D-03      0.497D-04      -263.77228790    406.829851   -0.94780   -0.00002    0.00000    5
    7      0.619D-04      0.111D-04      -263.77228863    406.821319   -0.94742   -0.00002    0.00000    6
    8      0.201D-04      0.249D-05      -263.77228867    406.822765   -0.94747   -0.00002    0.00000    7
    9      0.520D-05      0.835D-06      -263.77228867    406.822502   -0.94745   -0.00002    0.00000    0

 Final occupancy:  13   3

 !RHF STATE 1.1 Energy               -263.772288673521
 Nuclear energy                       106.42491064
 One-electron energy                 -573.60845031
 Two-electron energy                  203.41125100
 Virial quotient                       -1.00175622
 !RHF STATE 1.1 Dipole moment          -0.94744880    -0.00002323     0.00000000
 Dipole moment /Debye                  -2.40801693    -0.00005903     0.00000000

 Orbital energies:

         1.1          2.1          3.1          4.1          5.1          6.1          7.1          8.1          9.1         10.1
    -20.628877   -20.628832   -20.579606   -11.440101    -1.507475    -1.454616    -1.366539    -0.779398    -0.731417    -0.721805

        11.1         12.1         13.1         14.1         15.1
     -0.696858    -0.595794    -0.522889     0.025019     0.047619

         1.2          2.2          3.2          4.2          5.2
     -0.692095    -0.524464    -0.522209     0.082880     0.168647


 **********************************************************************************************************************************
 DATASETS  * FILE   NREC   LENGTH (MB)   RECORD NAMES
              1      18        3.76       500      610      700      900      950      970     1000      129      960     1100   
                                          VAR    BASINP    GEOM    SYMINP    ZMAT    AOBASIS   BASIS     P2S    ABASIS      S 
                                         1400     1410     1200     1210     1080     1600     1650     1700   
                                           T        V       H0       H01     AOSYM     SMH    MOLCAS    OPER   

              2       3        0.96       700     1000     2100   
                                         GEOM     BASIS     RHF  

 PROGRAMS   *        TOTAL        HF       INT
 CPU TIMES  *        15.02      4.65     10.26
 REAL TIME  *        17.61 SEC
 DISK USED  *         2.75 GB      
 SF USED    *         0.12 MB      
 GA USED    *         0.00 MB       (max)       0.00 MB       (current)
 **********************************************************************************************************************************


1PROGRAM * CCSD (Closed-shell coupled cluster)     Authors: C. Hampel, H.-J. Werner, 1991, M. Deegan, P.J. Knowles, 1992

                                  CCSD-F12 implementation by  H.-J. Werner, 2007

                   Density fitting integral evaluation by F.R. Manby, 2003,2007, G. Knizia, 2010

 Basis set CC-PVTZ/JKFIT generated.      Number of basis functions:   376 
 Basis set AUG-CC-PVTZ/MP2FIT generated. Number of basis functions:   516 

 Convergence thresholds:  THRVAR = 1.00D-08  THRDEN = 1.00D-06

 CCSD(T)     terms to be evaluated (factor= 1.000)


 Number of core orbitals:           4 (   4   0 )
 Number of closed-shell orbitals:  12 (   9   3 )
 Number of external orbitals:     214 ( 139  75 )

 Molecular orbitals read from record     2100.2  Type=RHF/CANONICAL (state 1.1)

 MP2-F12 correlation treatment (H.-J. Werner, 2006)
 --------------------------------------------------

 Using MP2-F12 with ansatz 3C(FIX)

 Using projected zeroth-order Hamiltonian (+Z)

 FOCKRIB=T FOCKRIC=T FOCKRIP=T CABSP=T CABSA=T CABSK=T CABSF=T GBC=F EBC=F DMAT=T NOFIK=T NOPAO=1 SOLVE=-1  USEPAO=0
 EXCH_A= T EXCH_B= F EXCH_C= F EXCH_P= F
 
 Geminal basis:    OPTFULL  GEM_TYPE=SLATER  BETA=1.0  NGEM=6

 Optimizing Gaussian exponents for each gem_beta

 Geminal optimization for beta= 1.0000
 Weight function:   m=0, omega= 1.4646

 Augmented Hessian optimization of geminal fit. Trust ratio= 0.40000
 Convergence reached after   2 iterations. Final gradient= 8.24D-16, Step= 4.32D-06, Delta= 1.28D-09
 
 Alpha:                 0.19532     0.81920     2.85917     9.50073    35.69989   197.79328
 Coeff:                 0.27070     0.30552     0.18297     0.10986     0.06810     0.04224
 

 Symmetry turned off. Reference energy:       -263.772288673520

 All pairs explicitly correlated. Number of r12-pairs:           78
 
 AO(A)-basis ORBITAL           loaded. Number of functions:     230
 RI(R)-basis CC-PVTZ/JKFIT     loaded. Number of functions:     376
 DF-basis CC-PVTZ/JKFIT        loaded. Number of functions:     376

 Screening thresholds:   THRAO=  1.00D-10  THRMO=  1.00D-09  THRPROD=  1.00D-09
                         THRSW=  1.00D-05  THROV=  1.00D-12  THRF12=   1.00D-08

 CPU time for Fock operators                      1.10 sec
 
 Construction of ABS:
 Smallest eigenvalue of S          2.47E-04  (threshold= 1.00E-08)
 Ratio eigmin/eigmax               1.76E-06  (threshold= 1.00E-09)
 Smallest eigenvalue of S kept     2.47E-04  (threshold= 2.47E-04, 0 functions deleted, 376 kept)
 
 Construction of CABS:
 Smallest eigenvalue of S          2.25E-08  (threshold= 1.00E-08)
 Ratio eigmin/eigmax               2.25E-08  (threshold= 1.00E-09)
 Smallest eigenvalue of S kept     2.25E-08  (threshold= 2.25E-08, 0 functions deleted, 376 kept)
 
 CPU time for CABS singles                        0.19 sec

 CABS-singles contribution of  -0.01591483 patched into reference energy.
 New reference energy        -263.78820351
 
 AO(A)-basis ORBITAL           loaded. Number of functions:     230
 RI(R)-basis CC-PVTZ/JKFIT     loaded. Number of functions:     376
 DF-basis AUG-CC-PVTZ/MP2FIT   loaded. Number of functions:     516

 Screening thresholds:   THRAO=  1.00D-10  THRMO=  1.00D-09  THRPROD=  1.00D-09
                         THRSW=  1.00D-05  THROV=  1.00D-12  THRF12=   1.00D-08

 CPU time for 3-index integral evaluation         3.62 sec
 CPU time for first  half transformation          0.37 sec ( 7676.8 MFLOP/sec)
 CPU time for second half transformation          0.03 sec ( 3615.2 MFLOP/sec)
 CPU time for sorting                             0.18 sec
 CPU time for fitting                             0.07 sec (19900.7 MFLOP/sec)
 CPU time for tilde quantities                    0.10 sec (15261.8 MFLOP/sec)
 CPU time for assembly                            1.01 sec (20217.8 MFLOP/sec)
 CPU time for tranop_f12                          1.33 sec (15740.5 MFLOP/sec)
 CPU time for f12 integrals (total)               9.41 sec
 F12-matrices built in  3 passes.
 F12-matrices built in  3 passes.
 F12-matrices built in  3 passes.
 F12-matrices built in  3 passes.
 FC-matrix built in  3 passes.
 CPU time for f12 matrices (total)                0.57 sec

 Diagonal F12 approximation with fixed coefficients:  TSING= 0.500,  TTRIP= 0.250 (scaled by -1/beta)

 DF-MP2-F12 energy corrections:
 ------------------------------
 Approx.                                    Singlet             Triplet             Total
 DF-MP2-F12/3*C(DX,FIX)                -0.097365123360     -0.017003923374     -0.114369046734
 DF-MP2-F12/3*C(FIX)                   -0.079784801779     -0.013489103960     -0.093273905739
 DF-MP2-F12/3C(FIX)                    -0.080159948482     -0.013528282429     -0.093688230911

 DF-MP2-F12 correlation energies:
 --------------------------------
 Approx.                                    Singlet             Triplet             Ecorr            Total Energy
 DF-MP2                                -0.537828583489     -0.344680906616     -0.882509490105   -264.670712997408
 DF-MP2-F12/3*C(DX,FIX)                -0.635193706849     -0.361684829990     -0.996878536839   -264.785082044142
 DF-MP2-F12/3*C(FIX)                   -0.617613385268     -0.358170010577     -0.975783395845   -264.763986903148
 DF-MP2-F12/3C(FIX)                    -0.617988531970     -0.358209189046     -0.976197721016   -264.764401228319

 SCS-DF-MP2 energies (F_SING= 1.20000  F_TRIP= 0.62222  F_PARALLEL= 0.33333):
 ----------------------------------------------------------------------------
 SCS-DF-MP2                            -0.859862419859   -264.648065927162
 SCS-DF-MP2-F12/3*C(DX,FIX)            -0.987280786879   -264.775484294182
 SCS-DF-MP2-F12/3*C(FIX)               -0.963997402236   -264.752200909539
 SCS-DF-MP2-F12/3C(FIX)                -0.964471955993   -264.752675463296

 Symmetry restored.
 Symmetry transformation completed.

 Number of N-1 electron functions:              12
 Number of N-2 electron functions:              78
 Number of singly external CSFs:              1476
 Number of doubly external CSFs:           1686804
 Total number of CSFs:                     1688281

 Pair and operator lists are different

 Length of J-op  integral file:             466.42 MB
 Length of K-op  integral file:             526.62 MB
 Length of 3-ext integral record:             0.00 MB

 Memory could be reduced to 76.61 Mwords without degradation in triples

 Integral transformation finished. Total CPU:   5.23 sec, npass=  1  Memory used:  24.61 MW

 Reference energy:                   -263.78820351

 Adding F12 terms to K(Cij), methodcc=6,  factor=1.0

 ITER.      SQ.NORM     CORR.ENERGY   TOTAL ENERGY   ENERGY CHANGE        DEN1      VAR(S)    VAR(P)  DIIS     TIME
   1      1.20202178    -0.86438156  -264.65258507     0.01814094     0.04661524  0.72D-02  0.55D-02  1  1    20.10
   2      1.21629721    -0.86023366  -264.64843716     0.00414790    -0.02010283  0.89D-04  0.58D-03  2  2    23.34
   3      1.22166665    -0.86035020  -264.64855371    -0.00011654    -0.00235526  0.13D-03  0.32D-04  3  3    26.58
   4      1.22448011    -0.86022050  -264.64842401     0.00012970    -0.00141257  0.78D-05  0.40D-05  4  4    29.84
   5      1.22551200    -0.86018361  -264.64838712     0.00003689    -0.00036417  0.60D-06  0.28D-06  5  5    33.10
   6      1.22567463    -0.86015662  -264.64836013     0.00002699    -0.00000764  0.43D-07  0.25D-07  6  6    36.39
   7      1.22570604    -0.86015380  -264.64835731     0.00000282    -0.00000659  0.35D-08  0.39D-08  6  2    39.65
   8      1.22570626    -0.86015353  -264.64835704     0.00000027     0.00000209  0.42D-09  0.31D-09  6  1    42.92
   9      1.22570678    -0.86015360  -264.64835711    -0.00000006     0.00000068  0.43D-10  0.25D-10  6  4    46.20

 Norm of t1 vector:      0.10644364      S-energy:     0.00000003      T1 diagnostic:  0.01536382
                                                                       D1 diagnostic:  0.04589375

 Adding energy correction from Wij-K(Fij), methodcc=6  factor=1.0
 
  CCSD correlation energy              -0.860153599785
  MP2-F12 correction (uncoupled)       -0.092515056651
  C*T doubles correction               -0.001475677814
  f12b correction                       0.015417177596


 Total CPU time for triples:     87.99 sec


 RESULTS
 =======

  Reference energy                   -263.772288673520
  F12 singles correction               -0.015914833782

 F12 singles corrections added to reference energy

  New reference energy               -263.788203507303

  F12a singlet correction              -0.080352763299
  F12a triplet correction              -0.013637971165
  F12a total correction                -0.093990734464

 F12a corrections for ansatz F12/3C(FIX) added to CCSD energy
 
  CCSD-F12a singlet pair energy        -0.641685826029
  CCSD-F12a triplet pair energy        -0.312458541368
  CCSD-F12a correlation energy         -0.954144334250

  Triples (T) contribution             -0.037930722434
  Total correlation energy             -0.992075056684

  CCSD-F12a total energy             -264.742347841553
  CCSD[T]-F12a energy                -264.782818929326
  CCSD-T-F12a energy                 -264.779349668667
 !CCSD(T)-F12a total energy          -264.780278563986

 F12b corrections for ansatz F12/3C(FIX) added to CCSD(T)-F12a energy

  CCSD-F12b singlet pair energy        -0.627502931406
  CCSD-F12b triplet pair energy        -0.311224258395
  CCSD-F12b correlation energy         -0.938727156653

  Triples (T) contribution             -0.037930722434
  Total correlation energy             -0.976657879087

  CCSD-F12b total energy             -264.726930663956
  CCSD[T]-F12b energy                -264.767401751729
  CCSD-T-F12b energy                 -264.763932491070
 !CCSD(T)-F12b total energy          -264.764861386390

 Timing summary (sec):

 STEP                 CPU(USER)    SYS     CPU(TOT)    WALL
 Transformation          5.26      0.59      5.85      5.85
 CCSD iterations        29.19      1.86     31.05     31.77
 Triples                87.99      1.74     89.73     89.70
 MP2-F12                11.76      1.16     12.92     13.02
 F12b energy             2.18      0.05      2.23      2.23

 Program statistics:

 Available memory in ccsd:                99998934
 Min. memory needed in ccsd:               4458306
 Max. memory used in ccsd:                 5958390
 Max. memory used in cckext:               6352469 (10 integral passes)



 **********************************************************************************************************************************
 DATASETS  * FILE   NREC   LENGTH (MB)   RECORD NAMES
              1      20      269.66       500      610      700      900      950      970     1000      129      960     1100   
                                          VAR    BASINP    GEOM    SYMINP    ZMAT    AOBASIS   BASIS     P2S    ABASIS      S 
                                         1400     1410     1200     1210     1080     1600     1650     1700      960(1)  1380   
                                           T        V       H0       H01     AOSYM     SMH    MOLCAS    OPER    ABASIS    JKOP   

              2       5        1.55       700     1000     2100     7360     7350   
                                         GEOM     BASIS     RHF    F12ABS    EF12   

 PROGRAMS   *        TOTAL   CCSD(T)        HF       INT
 CPU TIMES  *       151.58    136.55      4.65     10.26
 REAL TIME  *       160.49 SEC
 DISK USED  *         3.19 GB      
 SF USED    *         1.53 GB      
 GA USED    *         2.40 MB       (max)       0.00 MB       (current)
 **********************************************************************************************************************************

     CCSD(T)-F12        HF-SCF  
   -264.76486139   -263.77228867
 **********************************************************************************************************************************
 Variable memory released
