
 Primary working directories    : /scratch/kee
 Secondary working directories  : /scratch/kee
 Wavefunction directory         : /home/kee/wfu/
 Main file repository           : /scratch/kee/

 ARCHNAME  : Linux/x86_64
 FC        : /opt/intel/composer_xe_2015.0.090/bin/intel64/ifort
 FCVERSION : 15.0.0
 BLASLIB   : -L/opt/intel/mkl/lib/intel64 -lmkl_intel_ilp64 -lmkl_sequential -lmkl_core
 id        : emory

 Nodes     nprocs
 node22       3
 Number of processes for MPI-2 version of Molpro:   nprocs(total)=    4   nprocs(compute)=    3   nprocs(helper)=    1
 ga_uses_ma=false, calling ma_init with nominal heap.
 GA-space will be limited to   8.0 MW (determined by -G option)

 Using customized tuning parameters: mindgm=7; mindgv=32; mindgc=1; mindgr=1; noblas=0; mincuda=1000; minvec=7
 default implementation of scratch files=sf  

 ***,co2h2o
 memory,100,m
 basis avtz
 geomtype = xyz
 geometry = {
 6
       0.00000000
 O     0.00032100    1.15989800    0.00000000
 O     0.00041400   -1.15989400    0.00000000
 O     4.43372927    3.24364286    1.16349297
 H     5.22528379    3.55259850    0.72114433
 H     4.74771508    2.76501511    1.93161520
 C     0.01953800    0.00000300    0.00000000
 }
 hf
 ccsd(t)-f12
 ---

 Variables initialized (665), CPU time= 0.01 sec
 Commands  initialized (462), CPU time= 0.01 sec, 486 directives.
 Default parameters read. Elapsed time= 0.06 sec

 Checking input...
 Passed
1


                                         ***  PROGRAM SYSTEM MOLPRO  ***
                         Copyright, University College Cardiff Consultants Limited, 2008

                                    Version 2010.1 linked 9 Dec 2014 15:06:28 


 **********************************************************************************************************************************
 LABEL *   co2h2o                                                                        
 Linux-2.6.32-504.el6.x86_64/node22(x86_64) 64 bit mpp version                           DATE: 15-Dec-16          TIME: 01:44:30  
 **********************************************************************************************************************************

 Patch level:      19
 **********************************************************************************************************************************

 Variable memory set to  100000000 words,  buffer space   230000 words

 SETTING BASIS          =    AVTZ
 SETTING GEOMTYPE       =    XYZ

Geometry recognized as XYZ



 Recomputing integrals since basis changed


 Using spherical harmonics

 Library entry O      S aug-cc-pVTZ          selected for orbital group  1
 Library entry O      P aug-cc-pVTZ          selected for orbital group  1
 Library entry O      D aug-cc-pVTZ          selected for orbital group  1
 Library entry O      F aug-cc-pVTZ          selected for orbital group  1
 Library entry H      S aug-cc-pVTZ          selected for orbital group  2
 Library entry H      P aug-cc-pVTZ          selected for orbital group  2
 Library entry H      D aug-cc-pVTZ          selected for orbital group  2
 Library entry C      S aug-cc-pVTZ          selected for orbital group  3
 Library entry C      P aug-cc-pVTZ          selected for orbital group  3
 Library entry C      D aug-cc-pVTZ          selected for orbital group  3
 Library entry C      F aug-cc-pVTZ          selected for orbital group  3

1PROGRAM * SEWARD (Integral evaluation for generally contracted gaussian basis sets)     Author: Roland Lindh, 1990

 Geometry written to block  1 of record 700


 Point group  C1  



 ATOMIC COORDINATES

 NR  ATOM    CHARGE       X              Y              Z

   1  O       8.00    0.000606602    2.191889560    0.000000000
   2  O       8.00    0.000782347   -2.191882001    0.000000000
   3  O       8.00    8.378534061    6.129596674    2.198683069
   4  H       1.00    9.874355322    6.713438220    1.362765285
   5  H       1.00    8.971881251    5.225121307    3.650223719
   6  C       6.00    0.036921469    0.000005669    0.000000000

 Bond lengths in Bohr (Angstrom)

 1-6  2.192184701  2-6  2.192185575  3-4  1.810279188  3-5  1.810278110
     (1.160054182)     (1.160054644)     (0.957958488)     (0.957957918)

 Bond angles

  1-6-2  178.10622893   4-3-5  105.10354909

 NUCLEAR CHARGE:                   32
 NUMBER OF PRIMITIVE AOS:         322
 NUMBER OF SYMMETRY AOS:          282
 NUMBER OF CONTRACTIONS:          230   ( 230A   )
 NUMBER OF CORE ORBITALS:           4   (   4A   )
 NUMBER OF VALENCE ORBITALS:       18   (  18A   )


 NUCLEAR REPULSION ENERGY   87.98884238


 Eigenvalues of metric

         1 0.337E-03 0.367E-03 0.387E-03 0.401E-03 0.891E-03 0.911E-03 0.163E-02 0.170E-02


 Contracted 2-electron integrals neglected if value below      1.0D-11
 AO integral compression algorithm  1   Integral accuracy      1.0D-11

     750.518 MB (compressed) written to integral file ( 23.5%)

     Node minimum: 243.007 MB, node maximum: 261.095 MB


 NUMBER OF SORTED TWO-ELECTRON INTEGRALS:  117629820.     BUFFER LENGTH:  32768
 NUMBER OF SEGMENTS:   8  SEGMENT LENGTH:   15997437      RECORD LENGTH: 524288

 Memory used in sort:      16.55 MW

 SORT1 READ   399452363. AND WROTE    59215103. INTEGRALS IN    174 RECORDS. CPU TIME:     4.37 SEC, REAL TIME:     5.02 SEC
 SORT2 READ   177046552. AND WROTE   352862895. INTEGRALS IN   2988 RECORDS. CPU TIME:     1.46 SEC, REAL TIME:     1.99 SEC

 Node minimum:   117612110.  Node maximum:   117629820. integrals

 OPERATOR DM      FOR CENTER  0  COORDINATES:    0.000000    0.000000    0.000000


 **********************************************************************************************************************************
 DATASETS  * FILE   NREC   LENGTH (MB)   RECORD NAMES
              1      18        4.62       500      610      700      900      950      970     1000      129      960     1100   
                                          VAR    BASINP    GEOM    SYMINP    ZMAT    AOBASIS   BASIS     P2S    ABASIS      S 
                                         1400     1410     1200     1210     1080     1600     1650     1700   
                                           T        V       H0       H01     AOSYM     SMH    MOLCAS    OPER   

 PROGRAMS   *        TOTAL       INT
 CPU TIMES  *        10.05      9.93
 REAL TIME  *        11.47 SEC
 DISK USED  *         2.82 GB      
 GA USED    *         0.00 MB       (max)       0.00 MB       (current)
 **********************************************************************************************************************************

1PROGRAM * RHF-SCF (CLOSED SHELL)       Authors: W. Meyer, H.-J. Werner


 NUMBER OF ELECTRONS:      16+   16-    SPACE SYMMETRY=1    SPIN SYMMETRY=Singlet 
 CONVERGENCE THRESHOLDS:    1.00E-05 (Density)    1.00E-07 (Energy)
 MAX. NUMBER OF ITERATIONS:       60
 INTERPOLATION TYPE:            DIIS
 INTERPOLATION STEPS:              2 (START)      1 (STEP)
 LEVEL SHIFTS:                  0.00 (CLOSED)  0.00 (OPEN) 



 Orbital guess generated from atomic densities. Full valence occupancy:   22

 Molecular orbital dump at record        2100.2

 ITERATION    DDIFF          GRAD             ENERGY        2-EL.EN.            DIPOLE MOMENTS         DIIS
    1      0.000D+00      0.000D+00      -263.66099600    371.718165    1.12581   -0.16403    0.31509    0
    2      0.000D+00      0.468D-02      -263.72624626    367.060767    0.65334   -0.05896    0.18705    1
    3      0.749D-02      0.317D-02      -263.76927350    369.638451    0.77245   -0.09347    0.21740    2
    4      0.308D-02      0.297D-03      -263.76976213    369.425203    0.77528   -0.08918    0.21855    3
    5      0.356D-03      0.863D-04      -263.76981878    369.428585    0.77034   -0.09172    0.21705    4
    6      0.133D-03      0.349D-04      -263.76982580    369.442212    0.77091   -0.08973    0.21725    5
    7      0.437D-04      0.894D-05      -263.76982653    369.434400    0.77053   -0.09063    0.21714    6
    8      0.146D-04      0.257D-05      -263.76982659    369.434942    0.77050   -0.09007    0.21713    7
    9      0.407D-05      0.171D-05      -263.76982659    369.435356    0.77050   -0.09045    0.21713    0

 Final occupancy:  16

 !RHF STATE 1.1 Energy               -263.769826594354
 Nuclear energy                        87.98884238
 One-electron energy                 -536.47634688
 Two-electron energy                  184.71767791
 Virial quotient                       -1.00173604
 !RHF STATE 1.1 Dipole moment           0.77049859    -0.09045474     0.21712967
 Dipole moment /Debye                   1.95828380    -0.22989795     0.55185241

 Orbital energies:

         1.1          2.1          3.1          4.1          5.1          6.1          7.1          8.1          9.1         10.1
    -20.647943   -20.647124   -20.567513   -11.455600    -1.526945    -1.473795    -1.353265    -0.795673    -0.738505    -0.719059

        11.1         12.1         13.1         14.1         15.1         16.1         17.1         18.1
     -0.710784    -0.710696    -0.584007    -0.539552    -0.539458    -0.510577     0.028146     0.045754


 **********************************************************************************************************************************
 DATASETS  * FILE   NREC   LENGTH (MB)   RECORD NAMES
              1      18        4.62       500      610      700      900      950      970     1000      129      960     1100   
                                          VAR    BASINP    GEOM    SYMINP    ZMAT    AOBASIS   BASIS     P2S    ABASIS      S 
                                         1400     1410     1200     1210     1080     1600     1650     1700   
                                           T        V       H0       H01     AOSYM     SMH    MOLCAS    OPER   

              2       3        1.44       700     1000     2100   
                                         GEOM     BASIS     RHF  

 PROGRAMS   *        TOTAL        HF       INT
 CPU TIMES  *        21.02     10.97      9.93
 REAL TIME  *        22.83 SEC
 DISK USED  *         2.86 GB      
 SF USED    *         0.21 MB      
 GA USED    *         0.00 MB       (max)       0.00 MB       (current)
 **********************************************************************************************************************************


1PROGRAM * CCSD (Closed-shell coupled cluster)     Authors: C. Hampel, H.-J. Werner, 1991, M. Deegan, P.J. Knowles, 1992

                                  CCSD-F12 implementation by  H.-J. Werner, 2007

                   Density fitting integral evaluation by F.R. Manby, 2003,2007, G. Knizia, 2010

 Basis set CC-PVTZ/JKFIT generated.      Number of basis functions:   376 
 Basis set AUG-CC-PVTZ/MP2FIT generated. Number of basis functions:   516 

 Convergence thresholds:  THRVAR = 1.00D-08  THRDEN = 1.00D-06

 CCSD(T)     terms to be evaluated (factor= 1.000)


 Number of core orbitals:           4 (   4 )
 Number of closed-shell orbitals:  12 (  12 )
 Number of external orbitals:     214 ( 214 )

 Molecular orbitals read from record     2100.2  Type=RHF/CANONICAL (state 1.1)

 MP2-F12 correlation treatment (H.-J. Werner, 2006)
 --------------------------------------------------

 Using MP2-F12 with ansatz 3C(FIX)

 Using projected zeroth-order Hamiltonian (+Z)

 FOCKRIB=T FOCKRIC=T FOCKRIP=T CABSP=T CABSA=T CABSK=T CABSF=T GBC=F EBC=F DMAT=T NOFIK=T NOPAO=1 SOLVE=-1  USEPAO=0
 EXCH_A= T EXCH_B= F EXCH_C= F EXCH_P= F
 
 Geminal basis:    OPTFULL  GEM_TYPE=SLATER  BETA=1.0  NGEM=6

 Optimizing Gaussian exponents for each gem_beta

 Geminal optimization for beta= 1.0000
 Weight function:   m=0, omega= 1.4646

 Augmented Hessian optimization of geminal fit. Trust ratio= 0.40000
 Convergence reached after   2 iterations. Final gradient= 8.24D-16, Step= 4.32D-06, Delta= 1.28D-09
 
 Alpha:                 0.19532     0.81920     2.85917     9.50073    35.69989   197.79328
 Coeff:                 0.27070     0.30552     0.18297     0.10986     0.06810     0.04224
 

 All pairs explicitly correlated. Number of r12-pairs:           78
 
 AO(A)-basis ORBITAL           loaded. Number of functions:     230
 RI(R)-basis CC-PVTZ/JKFIT     loaded. Number of functions:     376
 DF-basis CC-PVTZ/JKFIT        loaded. Number of functions:     376

 Screening thresholds:   THRAO=  1.00D-10  THRMO=  1.00D-09  THRPROD=  1.00D-09
                         THRSW=  1.00D-05  THROV=  1.00D-12  THRF12=   1.00D-08

 CPU time for Fock operators                      1.01 sec
 
 Construction of ABS:
 Smallest eigenvalue of S          2.57E-04  (threshold= 1.00E-08)
 Ratio eigmin/eigmax               1.83E-06  (threshold= 1.00E-09)
 Smallest eigenvalue of S kept     2.57E-04  (threshold= 2.57E-04, 0 functions deleted, 376 kept)
 
 Construction of CABS:
 Smallest eigenvalue of S          2.28E-08  (threshold= 1.00E-08)
 Ratio eigmin/eigmax               2.28E-08  (threshold= 1.00E-09)
 Smallest eigenvalue of S kept     2.28E-08  (threshold= 2.28E-08, 0 functions deleted, 376 kept)
 
 CPU time for CABS singles                        0.17 sec

 CABS-singles contribution of  -0.01596176 patched into reference energy.
 New reference energy        -263.78578835
 
 AO(A)-basis ORBITAL           loaded. Number of functions:     230
 RI(R)-basis CC-PVTZ/JKFIT     loaded. Number of functions:     376
 DF-basis AUG-CC-PVTZ/MP2FIT   loaded. Number of functions:     516

 Screening thresholds:   THRAO=  1.00D-10  THRMO=  1.00D-09  THRPROD=  1.00D-09
                         THRSW=  1.00D-05  THROV=  1.00D-12  THRF12=   1.00D-08

 CPU time for 3-index integral evaluation         2.33 sec
 CPU time for first  half transformation          0.27 sec (10444.0 MFLOP/sec)
 CPU time for second half transformation          0.01 sec (10312.1 MFLOP/sec)
 CPU time for sorting                             0.19 sec
 CPU time for fitting                             0.06 sec (23217.5 MFLOP/sec)
 CPU time for tilde quantities                    0.07 sec (26412.6 MFLOP/sec)
 CPU time for assembly                            0.87 sec (27172.7 MFLOP/sec)
 CPU time for tranop_f12                          0.94 sec (32093.5 MFLOP/sec)
 CPU time for f12 integrals (total)               6.97 sec
 F12-matrices built in  3 passes.
 F12-matrices built in  3 passes.
 F12-matrices built in  3 passes.
 F12-matrices built in  3 passes.
 FC-matrix built in  3 passes.
 CPU time for f12 matrices (total)                0.58 sec

 Diagonal F12 approximation with fixed coefficients:  TSING= 0.500,  TTRIP= 0.250 (scaled by -1/beta)

 DF-MP2-F12 energy corrections:
 ------------------------------
 Approx.                                    Singlet             Triplet             Total
 DF-MP2-F12/3*C(DX,FIX)                -0.097490981799     -0.016948654321     -0.114439636120
 DF-MP2-F12/3*C(FIX)                   -0.079892167655     -0.013405991058     -0.093298158712
 DF-MP2-F12/3C(FIX)                    -0.080250996885     -0.013429380922     -0.093680377807

 DF-MP2-F12 correlation energies:
 --------------------------------
 Approx.                                    Singlet             Triplet             Ecorr            Total Energy
 DF-MP2                                -0.537391068977     -0.342847217954     -0.880238286931   -264.666026637724
 DF-MP2-F12/3*C(DX,FIX)                -0.634882050776     -0.359795872276     -0.994677923052   -264.780466273845
 DF-MP2-F12/3*C(FIX)                   -0.617283236632     -0.356253209012     -0.973536445644   -264.759324796437
 DF-MP2-F12/3C(FIX)                    -0.617642065862     -0.356276598876     -0.973918664738   -264.759707015531

 SCS-DF-MP2 energies (F_SING= 1.20000  F_TRIP= 0.62222  F_PARALLEL= 0.33333):
 ----------------------------------------------------------------------------
 SCS-DF-MP2                            -0.858196440611   -264.643984791404
 SCS-DF-MP2-F12/3*C(DX,FIX)            -0.985731448125   -264.771519798918
 SCS-DF-MP2-F12/3*C(FIX)               -0.962408547343   -264.748196898136
 SCS-DF-MP2-F12/3C(FIX)                -0.962853696113   -264.748642046906
 Symmetry transformation completed.

 Number of N-1 electron functions:              12
 Number of N-2 electron functions:              78
 Number of singly external CSFs:              2568
 Number of doubly external CSFs:           3298596
 Total number of CSFs:                     3301165

 Pair and operator lists are different

 Length of J-op  integral file:             474.22 MB
 Length of K-op  integral file:             572.29 MB
 Length of 3-ext integral record:             0.00 MB

 For full I/O caching in triples, increase memory by 50.81 Mwords to 151.09 Mwords.

 Integral transformation finished. Total CPU:  15.50 sec, npass=  1  Memory used:  87.46 MW

 Reference energy:                   -263.78578835

 Adding F12 terms to K(Cij), methodcc=6,  factor=1.0

 ITER.      SQ.NORM     CORR.ENERGY   TOTAL ENERGY   ENERGY CHANGE        DEN1      VAR(S)    VAR(P)  DIIS     TIME
   1      1.20180207    -0.86230603  -264.64809438     0.01794846     0.04641413  0.71D-02  0.55D-02  1  1    34.28
   2      1.21603409    -0.85811873  -264.64390709     0.00418729    -0.02005493  0.85D-04  0.58D-03  2  2    44.20
   3      1.22134608    -0.85821277  -264.64400112    -0.00009403    -0.00235158  0.13D-03  0.32D-04  3  3    54.10
   4      1.22411760    -0.85808747  -264.64387583     0.00012529    -0.00140101  0.74D-05  0.41D-05  4  4    63.98
   5      1.22513168    -0.85805043  -264.64383879     0.00003704    -0.00036165  0.54D-06  0.28D-06  5  5    73.61
   6      1.22529134    -0.85802398  -264.64381233     0.00002646    -0.00000788  0.39D-07  0.23D-07  6  6    83.53
   7      1.22532021    -0.85802160  -264.64380995     0.00000238    -0.00000614  0.25D-08  0.39D-08  6  4    93.46
   8      1.22532052    -0.85802112  -264.64380947     0.00000048     0.00000191  0.38D-09  0.26D-09  6  1   103.45
   9      1.22532113    -0.85802118  -264.64380953    -0.00000007     0.00000055  0.26D-10  0.21D-10  6  2   113.35

 Norm of t1 vector:      0.10539949      S-energy:     0.00000092      T1 diagnostic:  0.01521311
                                                                       D1 diagnostic:  0.04464953

 Adding energy correction from Wij-K(Fij), methodcc=6  factor=1.0
 
  CCSD correlation energy              -0.858021183723
  MP2-F12 correction (uncoupled)       -0.092529113220
  C*T doubles correction               -0.001473111876
  f12b correction                       0.015402524474


 Total CPU time for triples:    236.39 sec


 RESULTS
 =======

  Reference energy                   -263.769826594354
  F12 singles correction               -0.015961756439

 F12 singles corrections added to reference energy

  New reference energy               -263.785788350793

  F12a singlet correction              -0.080453814408
  F12a triplet correction              -0.013548410688
  F12a total correction                -0.094002225096

 F12a corrections for ansatz F12/3C(FIX) added to CCSD energy
 
  CCSD-F12a singlet pair energy        -0.641580399236
  CCSD-F12a triplet pair energy        -0.310443925783
  CCSD-F12a correlation energy         -0.952023408819

  Triples (T) contribution             -0.037528706470
  Total correlation energy             -0.989552115289

  CCSD-F12a total energy             -264.737811759612
  CCSD[T]-F12a energy                -264.777859067449
  CCSD-T-F12a energy                 -264.774410177422
 !CCSD(T)-F12a total energy          -264.775340466082

 F12b corrections for ansatz F12/3C(FIX) added to CCSD(T)-F12a energy

  CCSD-F12b singlet pair energy        -0.627401808590
  CCSD-F12b triplet pair energy        -0.309219991956
  CCSD-F12b correlation energy         -0.936620884346

  Triples (T) contribution             -0.037528706470
  Total correlation energy             -0.974149590816

  CCSD-F12b total energy             -264.722409235139
  CCSD[T]-F12b energy                -264.762456542975
  CCSD-T-F12b energy                 -264.759007652948
 !CCSD(T)-F12b total energy          -264.759937941609

 Timing summary (sec):

 STEP                 CPU(USER)    SYS     CPU(TOT)    WALL
 Transformation         15.61      1.15     16.76     16.75
 CCSD iterations        88.43      3.05     91.48     91.49
 Triples               236.39      2.44    238.83    238.76
 MP2-F12                 9.33      1.29     10.62     10.64
 F12b energy             6.55      0.06      6.61      6.60

 Program statistics:

 Available memory in ccsd:                99998934
 Min. memory needed in ccsd:               8644845
 Max. memory used in ccsd:                11598633
 Max. memory used in cckext:               8768967 (10 integral passes)



 **********************************************************************************************************************************
 DATASETS  * FILE   NREC   LENGTH (MB)   RECORD NAMES
              1      20      527.84       500      610      700      900      950      970     1000      129      960     1100   
                                          VAR    BASINP    GEOM    SYMINP    ZMAT    AOBASIS   BASIS     P2S    ABASIS      S 
                                         1400     1410     1200     1210     1080     1600     1650     1700      960(1)  1380   
                                           T        V       H0       H01     AOSYM     SMH    MOLCAS    OPER    ABASIS    JKOP   

              2       5        2.50       700     1000     2100     7360     7350   
                                         GEOM     BASIS     RHF    F12ABS    EF12   

 PROGRAMS   *        TOTAL   CCSD(T)        HF       INT
 CPU TIMES  *       377.35    356.32     10.97      9.93
 REAL TIME  *       387.52 SEC
 DISK USED  *         3.72 GB      
 SF USED    *         1.91 GB      
 GA USED    *         2.40 MB       (max)       0.00 MB       (current)
 **********************************************************************************************************************************

     CCSD(T)-F12        HF-SCF  
   -264.75993794   -263.76982659
 **********************************************************************************************************************************
 Variable memory released
