
 Primary working directories    : /scratch/kee
 Secondary working directories  : /scratch/kee
 Wavefunction directory         : /home/kee/wfu/
 Main file repository           : /scratch/kee/

 ARCHNAME  : Linux/x86_64
 FC        : /opt/intel/composer_xe_2015.0.090/bin/intel64/ifort
 FCVERSION : 15.0.0
 BLASLIB   : -L/opt/intel/mkl/lib/intel64 -lmkl_intel_ilp64 -lmkl_sequential -lmkl_core
 id        : emory

 Nodes     nprocs
 node22       3
 Number of processes for MPI-2 version of Molpro:   nprocs(total)=    4   nprocs(compute)=    3   nprocs(helper)=    1
 ga_uses_ma=false, calling ma_init with nominal heap.
 GA-space will be limited to   8.0 MW (determined by -G option)

 Using customized tuning parameters: mindgm=7; mindgv=32; mindgc=1; mindgr=1; noblas=0; mincuda=1000; minvec=7
 default implementation of scratch files=sf  

 ***,co2h2o
 memory,100,m
 basis avtz
 geomtype = xyz
 geometry = {
 6
       0.00000000
 O     0.00032100    1.15989800    0.00000000
 O     0.00041400   -1.15989400    0.00000000
 O     4.15784232    3.04091537    1.09077466
 H     4.94939683    3.34987101    0.64842602
 H     4.47182813    2.56228762    1.85889689
 C     0.01953800    0.00000300    0.00000000
 }
 hf
 ccsd(t)-f12
 ---

 Variables initialized (665), CPU time= 0.01 sec
 Commands  initialized (462), CPU time= 0.00 sec, 486 directives.
 Default parameters read. Elapsed time= 0.03 sec

 Checking input...
 Passed
1


                                         ***  PROGRAM SYSTEM MOLPRO  ***
                         Copyright, University College Cardiff Consultants Limited, 2008

                                    Version 2010.1 linked 9 Dec 2014 15:06:28 


 **********************************************************************************************************************************
 LABEL *   co2h2o                                                                        
 Linux-2.6.32-504.el6.x86_64/node22(x86_64) 64 bit mpp version                           DATE: 15-Dec-16          TIME: 01:01:26  
 **********************************************************************************************************************************

 Patch level:      19
 **********************************************************************************************************************************

 Variable memory set to  100000000 words,  buffer space   230000 words

 SETTING BASIS          =    AVTZ
 SETTING GEOMTYPE       =    XYZ

Geometry recognized as XYZ



 Recomputing integrals since basis changed


 Using spherical harmonics

 Library entry O      S aug-cc-pVTZ          selected for orbital group  1
 Library entry O      P aug-cc-pVTZ          selected for orbital group  1
 Library entry O      D aug-cc-pVTZ          selected for orbital group  1
 Library entry O      F aug-cc-pVTZ          selected for orbital group  1
 Library entry H      S aug-cc-pVTZ          selected for orbital group  2
 Library entry H      P aug-cc-pVTZ          selected for orbital group  2
 Library entry H      D aug-cc-pVTZ          selected for orbital group  2
 Library entry C      S aug-cc-pVTZ          selected for orbital group  3
 Library entry C      P aug-cc-pVTZ          selected for orbital group  3
 Library entry C      D aug-cc-pVTZ          selected for orbital group  3
 Library entry C      F aug-cc-pVTZ          selected for orbital group  3

1PROGRAM * SEWARD (Integral evaluation for generally contracted gaussian basis sets)     Author: Roland Lindh, 1990

 Geometry written to block  1 of record 700


 Point group  C1  



 ATOMIC COORDINATES

 NR  ATOM    CHARGE       X              Y              Z

   1  O       8.00    0.000606602    2.191889560    0.000000000
   2  O       8.00    0.000782347   -2.191882001    0.000000000
   3  O       8.00    7.857183282    5.746497238    2.061265378
   4  H       1.00    9.353004524    6.330338784    1.225347594
   5  H       1.00    8.450530472    4.842021872    3.512806029
   6  C       6.00    0.036921469    0.000005669    0.000000000

 Bond lengths in Bohr (Angstrom)

 1-6  2.192184701  2-6  2.192185575  3-4  1.810279172  3-5  1.810278110
     (1.160054182)     (1.160054644)     (0.957958480)     (0.957957918)

 Bond angles

  1-6-2  178.10622893   4-3-5  105.10354942

 NUCLEAR CHARGE:                   32
 NUMBER OF PRIMITIVE AOS:         322
 NUMBER OF SYMMETRY AOS:          282
 NUMBER OF CONTRACTIONS:          230   ( 230A   )
 NUMBER OF CORE ORBITALS:           4   (   4A   )
 NUMBER OF VALENCE ORBITALS:       18   (  18A   )


 NUCLEAR REPULSION ENERGY   89.31888749


 Eigenvalues of metric

         1 0.336E-03 0.363E-03 0.385E-03 0.396E-03 0.890E-03 0.910E-03 0.163E-02 0.169E-02


 Contracted 2-electron integrals neglected if value below      1.0D-11
 AO integral compression algorithm  1   Integral accuracy      1.0D-11

     806.879 MB (compressed) written to integral file ( 25.0%)

     Node minimum: 260.047 MB, node maximum: 280.756 MB


 NUMBER OF SORTED TWO-ELECTRON INTEGRALS:  117629820.     BUFFER LENGTH:  32768
 NUMBER OF SEGMENTS:   8  SEGMENT LENGTH:   15997437      RECORD LENGTH: 524288

 Memory used in sort:      16.55 MW

 SORT1 READ   403120333. AND WROTE    64370113. INTEGRALS IN    188 RECORDS. CPU TIME:     4.48 SEC, REAL TIME:     5.13 SEC
 SORT2 READ   192514443. AND WROTE   352862895. INTEGRALS IN   2976 RECORDS. CPU TIME:     1.50 SEC, REAL TIME:     2.07 SEC

 Node minimum:   117612110.  Node maximum:   117629820. integrals

 OPERATOR DM      FOR CENTER  0  COORDINATES:    0.000000    0.000000    0.000000


 **********************************************************************************************************************************
 DATASETS  * FILE   NREC   LENGTH (MB)   RECORD NAMES
              1      18        4.62       500      610      700      900      950      970     1000      129      960     1100   
                                          VAR    BASINP    GEOM    SYMINP    ZMAT    AOBASIS   BASIS     P2S    ABASIS      S 
                                         1400     1410     1200     1210     1080     1600     1650     1700   
                                           T        V       H0       H01     AOSYM     SMH    MOLCAS    OPER   

 PROGRAMS   *        TOTAL       INT
 CPU TIMES  *        10.27     10.20
 REAL TIME  *        11.72 SEC
 DISK USED  *         3.07 GB      
 GA USED    *         0.00 MB       (max)       0.00 MB       (current)
 **********************************************************************************************************************************

1PROGRAM * RHF-SCF (CLOSED SHELL)       Authors: W. Meyer, H.-J. Werner


 NUMBER OF ELECTRONS:      16+   16-    SPACE SYMMETRY=1    SPIN SYMMETRY=Singlet 
 CONVERGENCE THRESHOLDS:    1.00E-05 (Density)    1.00E-07 (Energy)
 MAX. NUMBER OF ITERATIONS:       60
 INTERPOLATION TYPE:            DIIS
 INTERPOLATION STEPS:              2 (START)      1 (STEP)
 LEVEL SHIFTS:                  0.00 (CLOSED)  0.00 (OPEN) 



 Orbital guess generated from atomic densities. Full valence occupancy:   22

 Molecular orbital dump at record        2100.2

 ITERATION    DDIFF          GRAD             ENERGY        2-EL.EN.            DIPOLE MOMENTS         DIIS
    1      0.000D+00      0.000D+00      -263.66089840    374.424409    1.12582   -0.16400    0.31508    0
    2      0.000D+00      0.468D-02      -263.72616144    369.747529    0.65552   -0.05086    0.18704    1
    3      0.750D-02      0.317D-02      -263.76923786    372.330519    0.77425   -0.08931    0.21739    2
    4      0.308D-02      0.297D-03      -263.76972663    372.117255    0.77701   -0.08401    0.21851    3
    5      0.356D-03      0.866D-04      -263.76978340    372.120512    0.77212   -0.08722    0.21702    4
    6      0.133D-03      0.352D-04      -263.76979049    372.134073    0.77268   -0.08482    0.21722    5
    7      0.439D-04      0.912D-05      -263.76979124    372.126433    0.77231   -0.08587    0.21711    6
    8      0.147D-04      0.277D-05      -263.76979130    372.126772    0.77227   -0.08526    0.21710    7
    9      0.416D-05      0.176D-05      -263.76979131    372.127303    0.77228   -0.08565    0.21710    0

 Final occupancy:  16

 !RHF STATE 1.1 Energy               -263.769791305035
 Nuclear energy                        89.31888749
 One-electron energy                 -539.15233045
 Two-electron energy                  186.06365165
 Virial quotient                       -1.00173558
 !RHF STATE 1.1 Dipole moment           0.77227588    -0.08564584     0.21709878
 Dipole moment /Debye                   1.96280094    -0.21767574     0.55177392

 Orbital energies:

         1.1          2.1          3.1          4.1          5.1          6.1          7.1          8.1          9.1         10.1
    -20.647241   -20.646283   -20.567629   -11.454814    -1.526176    -1.473016    -1.353385    -0.794896    -0.737714    -0.719181

        11.1         12.1         13.1         14.1         15.1         16.1         17.1         18.1
     -0.710029    -0.709915    -0.584096    -0.538781    -0.538661    -0.510696     0.028021     0.045823


 **********************************************************************************************************************************
 DATASETS  * FILE   NREC   LENGTH (MB)   RECORD NAMES
              1      18        4.62       500      610      700      900      950      970     1000      129      960     1100   
                                          VAR    BASINP    GEOM    SYMINP    ZMAT    AOBASIS   BASIS     P2S    ABASIS      S 
                                         1400     1410     1200     1210     1080     1600     1650     1700   
                                           T        V       H0       H01     AOSYM     SMH    MOLCAS    OPER   

              2       3        1.44       700     1000     2100   
                                         GEOM     BASIS     RHF  

 PROGRAMS   *        TOTAL        HF       INT
 CPU TIMES  *        21.37     11.10     10.20
 REAL TIME  *        23.23 SEC
 DISK USED  *         3.10 GB      
 SF USED    *         0.21 MB      
 GA USED    *         0.00 MB       (max)       0.00 MB       (current)
 **********************************************************************************************************************************


1PROGRAM * CCSD (Closed-shell coupled cluster)     Authors: C. Hampel, H.-J. Werner, 1991, M. Deegan, P.J. Knowles, 1992

                                  CCSD-F12 implementation by  H.-J. Werner, 2007

                   Density fitting integral evaluation by F.R. Manby, 2003,2007, G. Knizia, 2010

 Basis set CC-PVTZ/JKFIT generated.      Number of basis functions:   376 
 Basis set AUG-CC-PVTZ/MP2FIT generated. Number of basis functions:   516 

 Convergence thresholds:  THRVAR = 1.00D-08  THRDEN = 1.00D-06

 CCSD(T)     terms to be evaluated (factor= 1.000)


 Number of core orbitals:           4 (   4 )
 Number of closed-shell orbitals:  12 (  12 )
 Number of external orbitals:     214 ( 214 )

 Molecular orbitals read from record     2100.2  Type=RHF/CANONICAL (state 1.1)

 MP2-F12 correlation treatment (H.-J. Werner, 2006)
 --------------------------------------------------

 Using MP2-F12 with ansatz 3C(FIX)

 Using projected zeroth-order Hamiltonian (+Z)

 FOCKRIB=T FOCKRIC=T FOCKRIP=T CABSP=T CABSA=T CABSK=T CABSF=T GBC=F EBC=F DMAT=T NOFIK=T NOPAO=1 SOLVE=-1  USEPAO=0
 EXCH_A= T EXCH_B= F EXCH_C= F EXCH_P= F
 
 Geminal basis:    OPTFULL  GEM_TYPE=SLATER  BETA=1.0  NGEM=6

 Optimizing Gaussian exponents for each gem_beta

 Geminal optimization for beta= 1.0000
 Weight function:   m=0, omega= 1.4646

 Augmented Hessian optimization of geminal fit. Trust ratio= 0.40000
 Convergence reached after   2 iterations. Final gradient= 8.24D-16, Step= 4.32D-06, Delta= 1.28D-09
 
 Alpha:                 0.19532     0.81920     2.85917     9.50073    35.69989   197.79328
 Coeff:                 0.27070     0.30552     0.18297     0.10986     0.06810     0.04224
 

 All pairs explicitly correlated. Number of r12-pairs:           78
 
 AO(A)-basis ORBITAL           loaded. Number of functions:     230
 RI(R)-basis CC-PVTZ/JKFIT     loaded. Number of functions:     376
 DF-basis CC-PVTZ/JKFIT        loaded. Number of functions:     376

 Screening thresholds:   THRAO=  1.00D-10  THRMO=  1.00D-09  THRPROD=  1.00D-09
                         THRSW=  1.00D-05  THROV=  1.00D-12  THRF12=   1.00D-08

 CPU time for Fock operators                      0.98 sec
 
 Construction of ABS:
 Smallest eigenvalue of S          2.57E-04  (threshold= 1.00E-08)
 Ratio eigmin/eigmax               1.83E-06  (threshold= 1.00E-09)
 Smallest eigenvalue of S kept     2.57E-04  (threshold= 2.57E-04, 0 functions deleted, 376 kept)
 
 Construction of CABS:
 Smallest eigenvalue of S          2.27E-08  (threshold= 1.00E-08)
 Ratio eigmin/eigmax               2.27E-08  (threshold= 1.00E-09)
 Smallest eigenvalue of S kept     2.27E-08  (threshold= 2.27E-08, 0 functions deleted, 376 kept)
 
 CPU time for CABS singles                        0.17 sec

 CABS-singles contribution of  -0.01596205 patched into reference energy.
 New reference energy        -263.78575335
 
 AO(A)-basis ORBITAL           loaded. Number of functions:     230
 RI(R)-basis CC-PVTZ/JKFIT     loaded. Number of functions:     376
 DF-basis AUG-CC-PVTZ/MP2FIT   loaded. Number of functions:     516

 Screening thresholds:   THRAO=  1.00D-10  THRMO=  1.00D-09  THRPROD=  1.00D-09
                         THRSW=  1.00D-05  THROV=  1.00D-12  THRF12=   1.00D-08

 CPU time for 3-index integral evaluation         2.38 sec
 CPU time for first  half transformation          0.23 sec (12115.9 MFLOP/sec)
 CPU time for second half transformation          0.02 sec ( 5347.2 MFLOP/sec)
 CPU time for sorting                             0.17 sec
 CPU time for fitting                             0.05 sec (27861.0 MFLOP/sec)
 CPU time for tilde quantities                    0.05 sec (36977.6 MFLOP/sec)
 CPU time for assembly                            0.82 sec (28814.4 MFLOP/sec)
 CPU time for tranop_f12                          0.95 sec (31737.6 MFLOP/sec)
 CPU time for f12 integrals (total)               6.79 sec
 F12-matrices built in  3 passes.
 F12-matrices built in  3 passes.
 F12-matrices built in  3 passes.
 F12-matrices built in  3 passes.
 FC-matrix built in  3 passes.
 CPU time for f12 matrices (total)                0.53 sec

 Diagonal F12 approximation with fixed coefficients:  TSING= 0.500,  TTRIP= 0.250 (scaled by -1/beta)

 DF-MP2-F12 energy corrections:
 ------------------------------
 Approx.                                    Singlet             Triplet             Total
 DF-MP2-F12/3*C(DX,FIX)                -0.097486729938     -0.016948405242     -0.114435135179
 DF-MP2-F12/3*C(FIX)                   -0.079888154826     -0.013406049500     -0.093294204327
 DF-MP2-F12/3C(FIX)                    -0.080247207932     -0.013429617862     -0.093676825794

 DF-MP2-F12 correlation energies:
 --------------------------------
 Approx.                                    Singlet             Triplet             Ecorr            Total Energy
 DF-MP2                                -0.537411118503     -0.342880160216     -0.880291278718   -264.666044629177
 DF-MP2-F12/3*C(DX,FIX)                -0.634897848440     -0.359828565457     -0.994726413898   -264.780479764356
 DF-MP2-F12/3*C(FIX)                   -0.617299273329     -0.356286209716     -0.973585483045   -264.759338833504
 DF-MP2-F12/3C(FIX)                    -0.617658326435     -0.356309778077     -0.973968104512   -264.759721454971

 SCS-DF-MP2 energies (F_SING= 1.20000  F_TRIP= 0.62222  F_PARALLEL= 0.33333):
 ----------------------------------------------------------------------------
 SCS-DF-MP2                            -0.858240997448   -264.643994347907
 SCS-DF-MP2-F12/3*C(DX,FIX)            -0.985770747746   -264.771524098205
 SCS-DF-MP2-F12/3*C(FIX)               -0.962448325151   -264.748201675610
 SCS-DF-MP2-F12/3C(FIX)                -0.962893853637   -264.748647204095
 Symmetry transformation completed.

 Number of N-1 electron functions:              12
 Number of N-2 electron functions:              78
 Number of singly external CSFs:              2568
 Number of doubly external CSFs:           3298596
 Total number of CSFs:                     3301165

 Pair and operator lists are different

 Length of J-op  integral file:             474.22 MB
 Length of K-op  integral file:             572.29 MB
 Length of 3-ext integral record:             0.00 MB

 For full I/O caching in triples, increase memory by 50.81 Mwords to 151.09 Mwords.

 Integral transformation finished. Total CPU:  13.33 sec, npass=  1  Memory used:  87.46 MW

 Reference energy:                   -263.78575335

 Adding F12 terms to K(Cij), methodcc=6,  factor=1.0

 ITER.      SQ.NORM     CORR.ENERGY   TOTAL ENERGY   ENERGY CHANGE        DEN1      VAR(S)    VAR(P)  DIIS     TIME
   1      1.20181898    -0.86235157  -264.64810492     0.01795580     0.04642668  0.71D-02  0.55D-02  1  1    31.13
   2      1.21605412    -0.85816310  -264.64391645     0.00418847    -0.02005861  0.85D-04  0.58D-03  2  2    40.05
   3      1.22136692    -0.85825712  -264.64401047    -0.00009402    -0.00235153  0.13D-03  0.32D-04  3  3    48.99
   4      1.22413911    -0.85813174  -264.64388509     0.00012538    -0.00140123  0.74D-05  0.41D-05  4  4    57.93
   5      1.22515348    -0.85809469  -264.64384804     0.00003706    -0.00036172  0.55D-06  0.28D-06  5  5    66.89
   6      1.22531321    -0.85806823  -264.64382158     0.00002646    -0.00000788  0.39D-07  0.23D-07  6  6    75.85
   7      1.22534211    -0.85806585  -264.64381920     0.00000238    -0.00000615  0.25D-08  0.39D-08  6  4    84.80
   8      1.22534243    -0.85806536  -264.64381871     0.00000048     0.00000191  0.39D-09  0.26D-09  6  1    93.77
   9      1.22534304    -0.85806543  -264.64381878    -0.00000007     0.00000055  0.26D-10  0.21D-10  6  2   102.72

 Norm of t1 vector:      0.10541093      S-energy:     0.00000110      T1 diagnostic:  0.01521476
                                                                       D1 diagnostic:  0.04465396

 Adding energy correction from Wij-K(Fij), methodcc=6  factor=1.0
 
  CCSD correlation energy              -0.858065430596
  MP2-F12 correction (uncoupled)       -0.092525822440
  C*T doubles correction               -0.001472901868
  f12b correction                       0.015402441263


 Total CPU time for triples:    220.96 sec


 RESULTS
 =======

  Reference energy                   -263.769791305035
  F12 singles correction               -0.015962045424

 F12 singles corrections added to reference energy

  New reference energy               -263.785753350459

  F12a singlet correction              -0.080450143559
  F12a triplet correction              -0.013548580749
  F12a total correction                -0.093998724308

 F12a corrections for ansatz F12/3C(FIX) added to CCSD energy
 
  CCSD-F12a singlet pair energy        -0.641592777291
  CCSD-F12a triplet pair energy        -0.310472479984
  CCSD-F12a correlation energy         -0.952064154904

  Triples (T) contribution             -0.037537151243
  Total correlation energy             -0.989601306147

  CCSD-F12a total energy             -264.737817505363
  CCSD[T]-F12a energy                -264.777874021225
  CCSD-T-F12a energy                 -264.774424154663
 !CCSD(T)-F12a total energy          -264.775354656607

 F12b corrections for ansatz F12/3C(FIX) added to CCSD(T)-F12a energy

  CCSD-F12b singlet pair energy        -0.627414301166
  CCSD-F12b triplet pair energy        -0.309248514846
  CCSD-F12b correlation energy         -0.936661713641

  Triples (T) contribution             -0.037537151243
  Total correlation energy             -0.974198864884

  CCSD-F12b total energy             -264.722415064100
  CCSD[T]-F12b energy                -264.762471579962
  CCSD-T-F12b energy                 -264.759021713400
 !CCSD(T)-F12b total energy          -264.759952215343

 Timing summary (sec):

 STEP                 CPU(USER)    SYS     CPU(TOT)    WALL
 Transformation         13.45      1.14     14.59     14.58
 CCSD iterations        80.28      2.98     83.26     83.38
 Triples               220.96      2.48    223.44    223.55
 MP2-F12                 9.02      1.20     10.22     10.40
 F12b energy             6.14      0.05      6.19      6.20

 Program statistics:

 Available memory in ccsd:                99998934
 Min. memory needed in ccsd:               8644845
 Max. memory used in ccsd:                11598633
 Max. memory used in cckext:               8768967 (10 integral passes)



 **********************************************************************************************************************************
 DATASETS  * FILE   NREC   LENGTH (MB)   RECORD NAMES
              1      20      527.84       500      610      700      900      950      970     1000      129      960     1100   
                                          VAR    BASINP    GEOM    SYMINP    ZMAT    AOBASIS   BASIS     P2S    ABASIS      S 
                                         1400     1410     1200     1210     1080     1600     1650     1700      960(1)  1380   
                                           T        V       H0       H01     AOSYM     SMH    MOLCAS    OPER    ABASIS    JKOP   

              2       5        2.50       700     1000     2100     7360     7350   
                                         GEOM     BASIS     RHF    F12ABS    EF12   

 PROGRAMS   *        TOTAL   CCSD(T)        HF       INT
 CPU TIMES  *       351.35    329.98     11.10     10.20
 REAL TIME  *       361.75 SEC
 DISK USED  *         3.96 GB      
 SF USED    *         1.91 GB      
 GA USED    *         2.40 MB       (max)       0.00 MB       (current)
 **********************************************************************************************************************************

     CCSD(T)-F12        HF-SCF  
   -264.75995222   -263.76979131
 **********************************************************************************************************************************
 Variable memory released
