
 Primary working directories    : /scratch/kee
 Secondary working directories  : /scratch/kee
 Wavefunction directory         : /home/kee/wfu/
 Main file repository           : /scratch/kee/

 ARCHNAME  : Linux/x86_64
 FC        : /opt/intel/composer_xe_2015.0.090/bin/intel64/ifort
 FCVERSION : 15.0.0
 BLASLIB   : -L/opt/intel/mkl/lib/intel64 -lmkl_intel_ilp64 -lmkl_sequential -lmkl_core
 id        : emory

 Nodes     nprocs
 node22       3
 Number of processes for MPI-2 version of Molpro:   nprocs(total)=    4   nprocs(compute)=    3   nprocs(helper)=    1
 ga_uses_ma=false, calling ma_init with nominal heap.
 GA-space will be limited to   8.0 MW (determined by -G option)

 Using customized tuning parameters: mindgm=7; mindgv=32; mindgc=1; mindgr=1; noblas=0; mincuda=1000; minvec=7
 default implementation of scratch files=sf  

 ***,co2h2o
 memory,100,m
 basis avtz
 geomtype = xyz
 geometry = {
 6
       0.00000000
 O     0.00032100    1.15989800    0.00000000
 O     0.00041400   -1.15989400    0.00000000
 O     4.47314169    3.27260393    1.17388130
 H     5.26469621    3.58155957    0.73153266
 H     4.78712750    2.79397618    1.94200353
 C     0.01953800    0.00000300    0.00000000
 }
 hf
 ccsd(t)-f12
 ---

 Variables initialized (665), CPU time= 0.00 sec
 Commands  initialized (462), CPU time= 0.01 sec, 486 directives.
 Default parameters read. Elapsed time= 0.03 sec

 Checking input...
 Passed
1


                                         ***  PROGRAM SYSTEM MOLPRO  ***
                         Copyright, University College Cardiff Consultants Limited, 2008

                                    Version 2010.1 linked 9 Dec 2014 15:06:28 


 **********************************************************************************************************************************
 LABEL *   co2h2o                                                                        
 Linux-2.6.32-504.el6.x86_64/node22(x86_64) 64 bit mpp version                           DATE: 15-Dec-16          TIME: 01:50:59  
 **********************************************************************************************************************************

 Patch level:      19
 **********************************************************************************************************************************

 Variable memory set to  100000000 words,  buffer space   230000 words

 SETTING BASIS          =    AVTZ
 SETTING GEOMTYPE       =    XYZ

Geometry recognized as XYZ



 Recomputing integrals since basis changed


 Using spherical harmonics

 Library entry O      S aug-cc-pVTZ          selected for orbital group  1
 Library entry O      P aug-cc-pVTZ          selected for orbital group  1
 Library entry O      D aug-cc-pVTZ          selected for orbital group  1
 Library entry O      F aug-cc-pVTZ          selected for orbital group  1
 Library entry H      S aug-cc-pVTZ          selected for orbital group  2
 Library entry H      P aug-cc-pVTZ          selected for orbital group  2
 Library entry H      D aug-cc-pVTZ          selected for orbital group  2
 Library entry C      S aug-cc-pVTZ          selected for orbital group  3
 Library entry C      P aug-cc-pVTZ          selected for orbital group  3
 Library entry C      D aug-cc-pVTZ          selected for orbital group  3
 Library entry C      F aug-cc-pVTZ          selected for orbital group  3

1PROGRAM * SEWARD (Integral evaluation for generally contracted gaussian basis sets)     Author: Roland Lindh, 1990

 Geometry written to block  1 of record 700


 Point group  C1  



 ATOMIC COORDINATES

 NR  ATOM    CHARGE       X              Y              Z

   1  O       8.00    0.000606602    2.191889560    0.000000000
   2  O       8.00    0.000782347   -2.191882001    0.000000000
   3  O       8.00    8.453012741    6.184325164    2.218314168
   4  H       1.00    9.948834002    6.768166711    1.382396384
   5  H       1.00    9.046359931    5.279849798    3.669854818
   6  C       6.00    0.036921469    0.000005669    0.000000000

 Bond lengths in Bohr (Angstrom)

 1-6  2.192184701  2-6  2.192185575  3-4  1.810279188  3-5  1.810278110
     (1.160054182)     (1.160054644)     (0.957958488)     (0.957957918)

 Bond angles

  1-6-2  178.10622893   4-3-5  105.10354909

 NUCLEAR CHARGE:                   32
 NUMBER OF PRIMITIVE AOS:         322
 NUMBER OF SYMMETRY AOS:          282
 NUMBER OF CONTRACTIONS:          230   ( 230A   )
 NUMBER OF CORE ORBITALS:           4   (   4A   )
 NUMBER OF VALENCE ORBITALS:       18   (  18A   )


 NUCLEAR REPULSION ENERGY   87.81194766


 Eigenvalues of metric

         1 0.337E-03 0.368E-03 0.387E-03 0.401E-03 0.891E-03 0.911E-03 0.163E-02 0.170E-02


 Contracted 2-electron integrals neglected if value below      1.0D-11
 AO integral compression algorithm  1   Integral accuracy      1.0D-11

     742.654 MB (compressed) written to integral file ( 23.3%)

     Node minimum: 233.570 MB, node maximum: 264.241 MB


 NUMBER OF SORTED TWO-ELECTRON INTEGRALS:  117629820.     BUFFER LENGTH:  32768
 NUMBER OF SEGMENTS:   8  SEGMENT LENGTH:   15997437      RECORD LENGTH: 524288

 Memory used in sort:      16.55 MW

 SORT1 READ   398452077. AND WROTE    58505512. INTEGRALS IN    171 RECORDS. CPU TIME:     4.23 SEC, REAL TIME:     4.93 SEC
 SORT2 READ   174914870. AND WROTE   352862895. INTEGRALS IN   2802 RECORDS. CPU TIME:     1.42 SEC, REAL TIME:     1.90 SEC

 Node minimum:   117612110.  Node maximum:   117629820. integrals

 OPERATOR DM      FOR CENTER  0  COORDINATES:    0.000000    0.000000    0.000000


 **********************************************************************************************************************************
 DATASETS  * FILE   NREC   LENGTH (MB)   RECORD NAMES
              1      18        4.62       500      610      700      900      950      970     1000      129      960     1100   
                                          VAR    BASINP    GEOM    SYMINP    ZMAT    AOBASIS   BASIS     P2S    ABASIS      S 
                                         1400     1410     1200     1210     1080     1600     1650     1700   
                                           T        V       H0       H01     AOSYM     SMH    MOLCAS    OPER   

 PROGRAMS   *        TOTAL       INT
 CPU TIMES  *         9.66      9.59
 REAL TIME  *        11.13 SEC
 DISK USED  *         2.79 GB      
 GA USED    *         0.00 MB       (max)       0.00 MB       (current)
 **********************************************************************************************************************************

1PROGRAM * RHF-SCF (CLOSED SHELL)       Authors: W. Meyer, H.-J. Werner


 NUMBER OF ELECTRONS:      16+   16-    SPACE SYMMETRY=1    SPIN SYMMETRY=Singlet 
 CONVERGENCE THRESHOLDS:    1.00E-05 (Density)    1.00E-07 (Energy)
 MAX. NUMBER OF ITERATIONS:       60
 INTERPOLATION TYPE:            DIIS
 INTERPOLATION STEPS:              2 (START)      1 (STEP)
 LEVEL SHIFTS:                  0.00 (CLOSED)  0.00 (OPEN) 



 Orbital guess generated from atomic densities. Full valence occupancy:   22

 Molecular orbital dump at record        2100.2

 ITERATION    DDIFF          GRAD             ENERGY        2-EL.EN.            DIPOLE MOMENTS         DIIS
    1      0.000D+00      0.000D+00      -263.66100782    371.358487    1.12581   -0.16404    0.31509    0
    2      0.000D+00      0.468D-02      -263.72625647    366.703553    0.65308   -0.05996    0.18705    1
    3      0.749D-02      0.317D-02      -263.76927783    369.280571    0.77224   -0.09398    0.21740    2
    4      0.308D-02      0.297D-03      -263.76976645    369.067324    0.77507   -0.08982    0.21855    3
    5      0.356D-03      0.863D-04      -263.76982309    369.070723    0.77012   -0.09228    0.21705    4
    6      0.133D-03      0.349D-04      -263.76983010    369.084357    0.77070   -0.09034    0.21726    5
    7      0.437D-04      0.892D-05      -263.76983083    369.076525    0.77031   -0.09121    0.21714    6
    8      0.145D-04      0.254D-05      -263.76983089    369.077093    0.77028   -0.09067    0.21713    7
    9      0.406D-05      0.170D-05      -263.76983089    369.077490    0.77028   -0.09105    0.21713    0

 Final occupancy:  16

 !RHF STATE 1.1 Energy               -263.769830893684
 Nuclear energy                        87.81194766
 One-electron energy                 -536.12052368
 Two-electron energy                  184.53874513
 Virial quotient                       -1.00173609
 !RHF STATE 1.1 Dipole moment           0.77028373    -0.09104730     0.21713364
 Dipole moment /Debye                   1.95773771    -0.23140400     0.55186251

 Orbital energies:

         1.1          2.1          3.1          4.1          5.1          6.1          7.1          8.1          9.1         10.1
    -20.648033   -20.647231   -20.567499   -11.455700    -1.527043    -1.473894    -1.353251    -0.795772    -0.738606    -0.719044

        11.1         12.1         13.1         14.1         15.1         16.1         17.1         18.1
     -0.710881    -0.710795    -0.583997    -0.539650    -0.539559    -0.510563     0.028161     0.045746


 **********************************************************************************************************************************
 DATASETS  * FILE   NREC   LENGTH (MB)   RECORD NAMES
              1      18        4.62       500      610      700      900      950      970     1000      129      960     1100   
                                          VAR    BASINP    GEOM    SYMINP    ZMAT    AOBASIS   BASIS     P2S    ABASIS      S 
                                         1400     1410     1200     1210     1080     1600     1650     1700   
                                           T        V       H0       H01     AOSYM     SMH    MOLCAS    OPER   

              2       3        1.44       700     1000     2100   
                                         GEOM     BASIS     RHF  

 PROGRAMS   *        TOTAL        HF       INT
 CPU TIMES  *        20.24     10.58      9.59
 REAL TIME  *        22.17 SEC
 DISK USED  *         2.83 GB      
 SF USED    *         0.21 MB      
 GA USED    *         0.00 MB       (max)       0.00 MB       (current)
 **********************************************************************************************************************************


1PROGRAM * CCSD (Closed-shell coupled cluster)     Authors: C. Hampel, H.-J. Werner, 1991, M. Deegan, P.J. Knowles, 1992

                                  CCSD-F12 implementation by  H.-J. Werner, 2007

                   Density fitting integral evaluation by F.R. Manby, 2003,2007, G. Knizia, 2010

 Basis set CC-PVTZ/JKFIT generated.      Number of basis functions:   376 
 Basis set AUG-CC-PVTZ/MP2FIT generated. Number of basis functions:   516 

 Convergence thresholds:  THRVAR = 1.00D-08  THRDEN = 1.00D-06

 CCSD(T)     terms to be evaluated (factor= 1.000)


 Number of core orbitals:           4 (   4 )
 Number of closed-shell orbitals:  12 (  12 )
 Number of external orbitals:     214 ( 214 )

 Molecular orbitals read from record     2100.2  Type=RHF/CANONICAL (state 1.1)

 MP2-F12 correlation treatment (H.-J. Werner, 2006)
 --------------------------------------------------

 Using MP2-F12 with ansatz 3C(FIX)

 Using projected zeroth-order Hamiltonian (+Z)

 FOCKRIB=T FOCKRIC=T FOCKRIP=T CABSP=T CABSA=T CABSK=T CABSF=T GBC=F EBC=F DMAT=T NOFIK=T NOPAO=1 SOLVE=-1  USEPAO=0
 EXCH_A= T EXCH_B= F EXCH_C= F EXCH_P= F
 
 Geminal basis:    OPTFULL  GEM_TYPE=SLATER  BETA=1.0  NGEM=6

 Optimizing Gaussian exponents for each gem_beta

 Geminal optimization for beta= 1.0000
 Weight function:   m=0, omega= 1.4646

 Augmented Hessian optimization of geminal fit. Trust ratio= 0.40000
 Convergence reached after   2 iterations. Final gradient= 8.24D-16, Step= 4.32D-06, Delta= 1.28D-09
 
 Alpha:                 0.19532     0.81920     2.85917     9.50073    35.69989   197.79328
 Coeff:                 0.27070     0.30552     0.18297     0.10986     0.06810     0.04224
 

 All pairs explicitly correlated. Number of r12-pairs:           78
 
 AO(A)-basis ORBITAL           loaded. Number of functions:     230
 RI(R)-basis CC-PVTZ/JKFIT     loaded. Number of functions:     376
 DF-basis CC-PVTZ/JKFIT        loaded. Number of functions:     376

 Screening thresholds:   THRAO=  1.00D-10  THRMO=  1.00D-09  THRPROD=  1.00D-09
                         THRSW=  1.00D-05  THROV=  1.00D-12  THRF12=   1.00D-08

 CPU time for Fock operators                      0.99 sec
 
 Construction of ABS:
 Smallest eigenvalue of S          2.57E-04  (threshold= 1.00E-08)
 Ratio eigmin/eigmax               1.83E-06  (threshold= 1.00E-09)
 Smallest eigenvalue of S kept     2.57E-04  (threshold= 2.57E-04, 0 functions deleted, 376 kept)
 
 Construction of CABS:
 Smallest eigenvalue of S          2.28E-08  (threshold= 1.00E-08)
 Ratio eigmin/eigmax               2.28E-08  (threshold= 1.00E-09)
 Smallest eigenvalue of S kept     2.28E-08  (threshold= 2.28E-08, 0 functions deleted, 376 kept)
 
 CPU time for CABS singles                        0.18 sec

 CABS-singles contribution of  -0.01596169 patched into reference energy.
 New reference energy        -263.78579258
 
 AO(A)-basis ORBITAL           loaded. Number of functions:     230
 RI(R)-basis CC-PVTZ/JKFIT     loaded. Number of functions:     376
 DF-basis AUG-CC-PVTZ/MP2FIT   loaded. Number of functions:     516

 Screening thresholds:   THRAO=  1.00D-10  THRMO=  1.00D-09  THRPROD=  1.00D-09
                         THRSW=  1.00D-05  THROV=  1.00D-12  THRF12=   1.00D-08

 CPU time for 3-index integral evaluation         2.20 sec
 CPU time for first  half transformation          0.33 sec ( 8624.2 MFLOP/sec)
 CPU time for second half transformation          0.03 sec ( 3621.8 MFLOP/sec)
 CPU time for sorting                             0.18 sec
 CPU time for fitting                             0.06 sec (23217.5 MFLOP/sec)
 CPU time for tilde quantities                    0.05 sec (36977.6 MFLOP/sec)
 CPU time for assembly                            0.85 sec (26686.4 MFLOP/sec)
 CPU time for tranop_f12                          0.94 sec (30398.3 MFLOP/sec)
 CPU time for f12 integrals (total)               6.88 sec
 F12-matrices built in  3 passes.
 F12-matrices built in  3 passes.
 F12-matrices built in  3 passes.
 F12-matrices built in  3 passes.
 FC-matrix built in  3 passes.
 CPU time for f12 matrices (total)                0.52 sec

 Diagonal F12 approximation with fixed coefficients:  TSING= 0.500,  TTRIP= 0.250 (scaled by -1/beta)

 DF-MP2-F12 energy corrections:
 ------------------------------
 Approx.                                    Singlet             Triplet             Total
 DF-MP2-F12/3*C(DX,FIX)                -0.097491502166     -0.016948704876     -0.114440207042
 DF-MP2-F12/3*C(FIX)                   -0.079892657687     -0.013406013445     -0.093298671132
 DF-MP2-F12/3C(FIX)                    -0.080251467633     -0.013429385224     -0.093680852857

 DF-MP2-F12 correlation energies:
 --------------------------------
 Approx.                                    Singlet             Triplet             Ecorr            Total Energy
 DF-MP2                                -0.537388772514     -0.342843584559     -0.880232357073   -264.666024939656
 DF-MP2-F12/3*C(DX,FIX)                -0.634880274680     -0.359792289435     -0.994672564115   -264.780465146698
 DF-MP2-F12/3*C(FIX)                   -0.617281430201     -0.356249598004     -0.973531028205   -264.759323610788
 DF-MP2-F12/3C(FIX)                    -0.617640240147     -0.356272969783     -0.973913209930   -264.759705792513

 SCS-DF-MP2 energies (F_SING= 1.20000  F_TRIP= 0.62222  F_PARALLEL= 0.33333):
 ----------------------------------------------------------------------------
 SCS-DF-MP2                            -0.858191424076   -264.643984006659
 SCS-DF-MP2-F12/3*C(DX,FIX)            -0.985727087487   -264.771519670070
 SCS-DF-MP2-F12/3*C(FIX)               -0.962404132777   -264.748196715360
 SCS-DF-MP2-F12/3C(FIX)                -0.962849247152   -264.748641829735
 Symmetry transformation completed.

 Number of N-1 electron functions:              12
 Number of N-2 electron functions:              78
 Number of singly external CSFs:              2568
 Number of doubly external CSFs:           3298596
 Total number of CSFs:                     3301165

 Pair and operator lists are different

 Length of J-op  integral file:             474.22 MB
 Length of K-op  integral file:             572.29 MB
 Length of 3-ext integral record:             0.00 MB

 For full I/O caching in triples, increase memory by 50.81 Mwords to 151.09 Mwords.

 Integral transformation finished. Total CPU:  13.81 sec, npass=  1  Memory used:  87.46 MW

 Reference energy:                   -263.78579258

 Adding F12 terms to K(Cij), methodcc=6,  factor=1.0

 ITER.      SQ.NORM     CORR.ENERGY   TOTAL ENERGY   ENERGY CHANGE        DEN1      VAR(S)    VAR(P)  DIIS     TIME
   1      1.20180017    -0.86230096  -264.64809354     0.01794761     0.04641269  0.71D-02  0.55D-02  1  1    31.84
   2      1.21603184    -0.85811380  -264.64390639     0.00418716    -0.02005452  0.85D-04  0.58D-03  2  2    40.88
   3      1.22134374    -0.85820784  -264.64400042    -0.00009403    -0.00235159  0.13D-03  0.32D-04  3  3    49.99
   4      1.22411519    -0.85808256  -264.64387514     0.00012528    -0.00140098  0.74D-05  0.41D-05  4  4    59.12
   5      1.22512924    -0.85804552  -264.64383810     0.00003704    -0.00036164  0.54D-06  0.28D-06  5  5    68.20
   6      1.22528889    -0.85801906  -264.64381164     0.00002646    -0.00000788  0.39D-07  0.23D-07  6  6    77.34
   7      1.22531776    -0.85801668  -264.64380927     0.00000238    -0.00000614  0.25D-08  0.39D-08  6  4    86.47
   8      1.22531807    -0.85801620  -264.64380878     0.00000048     0.00000191  0.38D-09  0.26D-09  6  1    95.64
   9      1.22531868    -0.85801627  -264.64380885    -0.00000007     0.00000055  0.26D-10  0.21D-10  6  2   104.79

 Norm of t1 vector:      0.10539829      S-energy:     0.00000089      T1 diagnostic:  0.01521293
                                                                       D1 diagnostic:  0.04464907

 Adding energy correction from Wij-K(Fij), methodcc=6  factor=1.0
 
  CCSD correlation energy              -0.858016266448
  MP2-F12 correction (uncoupled)       -0.092529550123
  C*T doubles correction               -0.001473140174
  f12b correction                       0.015402538770


 Total CPU time for triples:    209.37 sec


 RESULTS
 =======

  Reference energy                   -263.769830893684
  F12 singles correction               -0.015961688899

 F12 singles corrections added to reference energy

  New reference energy               -263.785792582583

  F12a singlet correction              -0.080454268098
  F12a triplet correction              -0.013548422198
  F12a total correction                -0.094002690296

 F12a corrections for ansatz F12/3C(FIX) added to CCSD energy
 
  CCSD-F12a singlet pair energy        -0.641579001893
  CCSD-F12a triplet pair energy        -0.310440845399
  CCSD-F12a correlation energy         -0.952018956744

  Triples (T) contribution             -0.037527773449
  Total correlation energy             -0.989546730193

  CCSD-F12a total energy             -264.737811539327
  CCSD[T]-F12a energy                -264.777857829352
  CCSD-T-F12a energy                 -264.774409048137
 !CCSD(T)-F12a total energy          -264.775339312777

 F12b corrections for ansatz F12/3C(FIX) added to CCSD(T)-F12a energy

  CCSD-F12b singlet pair energy        -0.627400394391
  CCSD-F12b triplet pair energy        -0.309216914132
  CCSD-F12b correlation energy         -0.936616417974

  Triples (T) contribution             -0.037527773449
  Total correlation energy             -0.974144191424

  CCSD-F12b total energy             -264.722409000557
  CCSD[T]-F12b energy                -264.762455290582
  CCSD-T-F12b energy                 -264.759006509367
 !CCSD(T)-F12b total energy          -264.759936774007

 Timing summary (sec):

 STEP                 CPU(USER)    SYS     CPU(TOT)    WALL
 Transformation         13.92      1.16     15.08     15.07
 CCSD iterations        81.69      3.13     84.82     84.88
 Triples               209.37      2.47    211.84    211.75
 MP2-F12                 9.21      1.28     10.49     10.49
 F12b energy             6.20      0.06      6.26      6.26

 Program statistics:

 Available memory in ccsd:                99998934
 Min. memory needed in ccsd:               8644845
 Max. memory used in ccsd:                11598633
 Max. memory used in cckext:               8768967 (10 integral passes)



 **********************************************************************************************************************************
 DATASETS  * FILE   NREC   LENGTH (MB)   RECORD NAMES
              1      20      527.84       500      610      700      900      950      970     1000      129      960     1100   
                                          VAR    BASINP    GEOM    SYMINP    ZMAT    AOBASIS   BASIS     P2S    ABASIS      S 
                                         1400     1410     1200     1210     1080     1600     1650     1700      960(1)  1380   
                                           T        V       H0       H01     AOSYM     SMH    MOLCAS    OPER    ABASIS    JKOP   

              2       5        2.50       700     1000     2100     7360     7350   
                                         GEOM     BASIS     RHF    F12ABS    EF12   

 PROGRAMS   *        TOTAL   CCSD(T)        HF       INT
 CPU TIMES  *       340.75    320.51     10.58      9.59
 REAL TIME  *       351.09 SEC
 DISK USED  *         3.69 GB      
 SF USED    *         1.91 GB      
 GA USED    *         2.40 MB       (max)       0.00 MB       (current)
 **********************************************************************************************************************************

     CCSD(T)-F12        HF-SCF  
   -264.75993677   -263.76983089
 **********************************************************************************************************************************
 Variable memory released
