
 Primary working directories    : /scratch/kee
 Secondary working directories  : /scratch/kee
 Wavefunction directory         : /home/kee/wfu/
 Main file repository           : /scratch/kee/

 ARCHNAME  : Linux/x86_64
 FC        : /opt/intel/composer_xe_2015.0.090/bin/intel64/ifort
 FCVERSION : 15.0.0
 BLASLIB   : -L/opt/intel/mkl/lib/intel64 -lmkl_intel_ilp64 -lmkl_sequential -lmkl_core
 id        : emory

 Nodes     nprocs
 node22       3
 Number of processes for MPI-2 version of Molpro:   nprocs(total)=    4   nprocs(compute)=    3   nprocs(helper)=    1
 ga_uses_ma=false, calling ma_init with nominal heap.
 GA-space will be limited to   8.0 MW (determined by -G option)

 Using customized tuning parameters: mindgm=7; mindgv=32; mindgc=1; mindgr=1; noblas=0; mincuda=1000; minvec=7
 default implementation of scratch files=sf  

 ***,co2h2o
 memory,100,m
 basis avtz
 geomtype = xyz
 geometry = {
 6
       0.00000000
 O     0.00032100    1.15989800    0.00000000
 O     0.00041400   -1.15989400    0.00000000
 O     3.96078021    2.89611002    1.03883301
 H     4.75233472    3.20506566    0.59648437
 H     4.27476602    2.41748227    1.80695524
 C     0.01953800    0.00000300    0.00000000
 }
 hf
 ccsd(t)-f12
 ---

 Variables initialized (665), CPU time= 0.01 sec
 Commands  initialized (462), CPU time= 0.01 sec, 486 directives.
 Default parameters read. Elapsed time= 0.04 sec

 Checking input...
 Passed
1


                                         ***  PROGRAM SYSTEM MOLPRO  ***
                         Copyright, University College Cardiff Consultants Limited, 2008

                                    Version 2010.1 linked 9 Dec 2014 15:06:28 


 **********************************************************************************************************************************
 LABEL *   co2h2o                                                                        
 Linux-2.6.32-504.el6.x86_64/node22(x86_64) 64 bit mpp version                           DATE: 15-Dec-16          TIME: 00:28:31  
 **********************************************************************************************************************************

 Patch level:      19
 **********************************************************************************************************************************

 Variable memory set to  100000000 words,  buffer space   230000 words

 SETTING BASIS          =    AVTZ
 SETTING GEOMTYPE       =    XYZ

Geometry recognized as XYZ



 Recomputing integrals since basis changed


 Using spherical harmonics

 Library entry O      S aug-cc-pVTZ          selected for orbital group  1
 Library entry O      P aug-cc-pVTZ          selected for orbital group  1
 Library entry O      D aug-cc-pVTZ          selected for orbital group  1
 Library entry O      F aug-cc-pVTZ          selected for orbital group  1
 Library entry H      S aug-cc-pVTZ          selected for orbital group  2
 Library entry H      P aug-cc-pVTZ          selected for orbital group  2
 Library entry H      D aug-cc-pVTZ          selected for orbital group  2
 Library entry C      S aug-cc-pVTZ          selected for orbital group  3
 Library entry C      P aug-cc-pVTZ          selected for orbital group  3
 Library entry C      D aug-cc-pVTZ          selected for orbital group  3
 Library entry C      F aug-cc-pVTZ          selected for orbital group  3

1PROGRAM * SEWARD (Integral evaluation for generally contracted gaussian basis sets)     Author: Roland Lindh, 1990

 Geometry written to block  1 of record 700


 Point group  C1  



 ATOMIC COORDINATES

 NR  ATOM    CHARGE       X              Y              Z

   1  O       8.00    0.000606602    2.191889560    0.000000000
   2  O       8.00    0.000782347   -2.191882001    0.000000000
   3  O       8.00    7.484789864    5.472854784    1.963109885
   4  H       1.00    8.980611106    6.056696331    1.127192101
   5  H       1.00    8.078137054    4.568379418    3.414650535
   6  C       6.00    0.036921469    0.000005669    0.000000000

 Bond lengths in Bohr (Angstrom)

 1-6  2.192184701  2-6  2.192185575  3-4  1.810279172  3-5  1.810278110
     (1.160054182)     (1.160054644)     (0.957958480)     (0.957957918)

 Bond angles

  1-6-2  178.10622893   4-3-5  105.10354942

 NUCLEAR CHARGE:                   32
 NUMBER OF PRIMITIVE AOS:         322
 NUMBER OF SYMMETRY AOS:          282
 NUMBER OF CONTRACTIONS:          230   ( 230A   )
 NUMBER OF CORE ORBITALS:           4   (   4A   )
 NUMBER OF VALENCE ORBITALS:       18   (  18A   )


 NUCLEAR REPULSION ENERGY   90.37957608


 Eigenvalues of metric

         1 0.335E-03 0.362E-03 0.383E-03 0.391E-03 0.889E-03 0.909E-03 0.162E-02 0.168E-02


 Contracted 2-electron integrals neglected if value below      1.0D-11
 AO integral compression algorithm  1   Integral accuracy      1.0D-11

     853.279 MB (compressed) written to integral file ( 26.2%)

     Node minimum: 271.319 MB, node maximum: 293.077 MB


 NUMBER OF SORTED TWO-ELECTRON INTEGRALS:  117629820.     BUFFER LENGTH:  32768
 NUMBER OF SEGMENTS:   8  SEGMENT LENGTH:   15997437      RECORD LENGTH: 524288

 Memory used in sort:      16.55 MW

 SORT1 READ   407498429. AND WROTE    68399283. INTEGRALS IN    200 RECORDS. CPU TIME:     4.77 SEC, REAL TIME:     5.54 SEC
 SORT2 READ   204571890. AND WROTE   352862895. INTEGRALS IN   3354 RECORDS. CPU TIME:     1.52 SEC, REAL TIME:     2.09 SEC

 Node minimum:   117612110.  Node maximum:   117629820. integrals

 OPERATOR DM      FOR CENTER  0  COORDINATES:    0.000000    0.000000    0.000000


 **********************************************************************************************************************************
 DATASETS  * FILE   NREC   LENGTH (MB)   RECORD NAMES
              1      18        4.62       500      610      700      900      950      970     1000      129      960     1100   
                                          VAR    BASINP    GEOM    SYMINP    ZMAT    AOBASIS   BASIS     P2S    ABASIS      S 
                                         1400     1410     1200     1210     1080     1600     1650     1700   
                                           T        V       H0       H01     AOSYM     SMH    MOLCAS    OPER   

 PROGRAMS   *        TOTAL       INT
 CPU TIMES  *        10.60     10.52
 REAL TIME  *        12.46 SEC
 DISK USED  *         3.27 GB      
 GA USED    *         0.00 MB       (max)       0.00 MB       (current)
 **********************************************************************************************************************************

1PROGRAM * RHF-SCF (CLOSED SHELL)       Authors: W. Meyer, H.-J. Werner


 NUMBER OF ELECTRONS:      16+   16-    SPACE SYMMETRY=1    SPIN SYMMETRY=Singlet 
 CONVERGENCE THRESHOLDS:    1.00E-05 (Density)    1.00E-07 (Energy)
 MAX. NUMBER OF ITERATIONS:       60
 INTERPOLATION TYPE:            DIIS
 INTERPOLATION STEPS:              2 (START)      1 (STEP)
 LEVEL SHIFTS:                  0.00 (CLOSED)  0.00 (OPEN) 



 Orbital guess generated from atomic densities. Full valence occupancy:   22

 Molecular orbital dump at record        2100.2

 ITERATION    DDIFF          GRAD             ENERGY        2-EL.EN.            DIPOLE MOMENTS         DIIS
    1      0.000D+00      0.000D+00      -263.66080839    376.585008    1.12583   -0.16395    0.31507    0
    2      0.000D+00      0.468D-02      -263.72608245    371.891337    0.65751   -0.04361    0.18704    1
    3      0.750D-02      0.318D-02      -263.76920498    374.478948    0.77590   -0.08559    0.21739    2
    4      0.308D-02      0.297D-03      -263.76969389    374.265669    0.77860   -0.07939    0.21849    3
    5      0.357D-03      0.869D-04      -263.76975078    374.268816    0.77376   -0.08319    0.21700    4
    6      0.133D-03      0.354D-04      -263.76975795    374.282312    0.77430   -0.08043    0.21719    5
    7      0.441D-04      0.929D-05      -263.76975871    374.274839    0.77394   -0.08162    0.21709    6
    8      0.149D-04      0.293D-05      -263.76975877    374.275004    0.77390   -0.08098    0.21707    7
    9      0.425D-05      0.178D-05      -263.76975878    374.275621    0.77391   -0.08135    0.21708    0

 Final occupancy:  16

 !RHF STATE 1.1 Energy               -263.769758780566
 Nuclear energy                        90.37957608
 One-electron energy                 -541.28714560
 Two-electron energy                  187.13781074
 Virial quotient                       -1.00173508
 !RHF STATE 1.1 Dipole moment           0.77390693    -0.08134924     0.21707521
 Dipole moment /Debye                   1.96694636    -0.20675559     0.55171400

 Orbital energies:

         1.1          2.1          3.1          4.1          5.1          6.1          7.1          8.1          9.1         10.1
    -20.646644   -20.645565   -20.567738   -11.454144    -1.525521    -1.472352    -1.353498    -0.794235    -0.737039    -0.719297

        11.1         12.1         13.1         14.1         15.1         16.1         17.1         18.1
     -0.709388    -0.709248    -0.584183    -0.538124    -0.537979    -0.510808     0.027896     0.045879


 **********************************************************************************************************************************
 DATASETS  * FILE   NREC   LENGTH (MB)   RECORD NAMES
              1      18        4.62       500      610      700      900      950      970     1000      129      960     1100   
                                          VAR    BASINP    GEOM    SYMINP    ZMAT    AOBASIS   BASIS     P2S    ABASIS      S 
                                         1400     1410     1200     1210     1080     1600     1650     1700   
                                           T        V       H0       H01     AOSYM     SMH    MOLCAS    OPER   

              2       3        1.44       700     1000     2100   
                                         GEOM     BASIS     RHF  

 PROGRAMS   *        TOTAL        HF       INT
 CPU TIMES  *        22.34     11.74     10.52
 REAL TIME  *        24.68 SEC
 DISK USED  *         3.31 GB      
 SF USED    *         0.21 MB      
 GA USED    *         0.00 MB       (max)       0.00 MB       (current)
 **********************************************************************************************************************************


1PROGRAM * CCSD (Closed-shell coupled cluster)     Authors: C. Hampel, H.-J. Werner, 1991, M. Deegan, P.J. Knowles, 1992

                                  CCSD-F12 implementation by  H.-J. Werner, 2007

                   Density fitting integral evaluation by F.R. Manby, 2003,2007, G. Knizia, 2010

 Basis set CC-PVTZ/JKFIT generated.      Number of basis functions:   376 
 Basis set AUG-CC-PVTZ/MP2FIT generated. Number of basis functions:   516 

 Convergence thresholds:  THRVAR = 1.00D-08  THRDEN = 1.00D-06

 CCSD(T)     terms to be evaluated (factor= 1.000)


 Number of core orbitals:           4 (   4 )
 Number of closed-shell orbitals:  12 (  12 )
 Number of external orbitals:     214 ( 214 )

 Molecular orbitals read from record     2100.2  Type=RHF/CANONICAL (state 1.1)

 MP2-F12 correlation treatment (H.-J. Werner, 2006)
 --------------------------------------------------

 Using MP2-F12 with ansatz 3C(FIX)

 Using projected zeroth-order Hamiltonian (+Z)

 FOCKRIB=T FOCKRIC=T FOCKRIP=T CABSP=T CABSA=T CABSK=T CABSF=T GBC=F EBC=F DMAT=T NOFIK=T NOPAO=1 SOLVE=-1  USEPAO=0
 EXCH_A= T EXCH_B= F EXCH_C= F EXCH_P= F
 
 Geminal basis:    OPTFULL  GEM_TYPE=SLATER  BETA=1.0  NGEM=6

 Optimizing Gaussian exponents for each gem_beta

 Geminal optimization for beta= 1.0000
 Weight function:   m=0, omega= 1.4646

 Augmented Hessian optimization of geminal fit. Trust ratio= 0.40000
 Convergence reached after   2 iterations. Final gradient= 8.24D-16, Step= 4.32D-06, Delta= 1.28D-09
 
 Alpha:                 0.19532     0.81920     2.85917     9.50073    35.69989   197.79328
 Coeff:                 0.27070     0.30552     0.18297     0.10986     0.06810     0.04224
 

 All pairs explicitly correlated. Number of r12-pairs:           78
 
 AO(A)-basis ORBITAL           loaded. Number of functions:     230
 RI(R)-basis CC-PVTZ/JKFIT     loaded. Number of functions:     376
 DF-basis CC-PVTZ/JKFIT        loaded. Number of functions:     376

 Screening thresholds:   THRAO=  1.00D-10  THRMO=  1.00D-09  THRPROD=  1.00D-09
                         THRSW=  1.00D-05  THROV=  1.00D-12  THRF12=   1.00D-08

 CPU time for Fock operators                      1.00 sec
 
 Construction of ABS:
 Smallest eigenvalue of S          2.56E-04  (threshold= 1.00E-08)
 Ratio eigmin/eigmax               1.83E-06  (threshold= 1.00E-09)
 Smallest eigenvalue of S kept     2.56E-04  (threshold= 2.56E-04, 0 functions deleted, 376 kept)
 
 Construction of CABS:
 Smallest eigenvalue of S          2.27E-08  (threshold= 1.00E-08)
 Ratio eigmin/eigmax               2.27E-08  (threshold= 1.00E-09)
 Smallest eigenvalue of S kept     2.27E-08  (threshold= 2.27E-08, 0 functions deleted, 376 kept)
 
 CPU time for CABS singles                        0.17 sec

 CABS-singles contribution of  -0.01596206 patched into reference energy.
 New reference energy        -263.78572084
 
 AO(A)-basis ORBITAL           loaded. Number of functions:     230
 RI(R)-basis CC-PVTZ/JKFIT     loaded. Number of functions:     376
 DF-basis AUG-CC-PVTZ/MP2FIT   loaded. Number of functions:     516

 Screening thresholds:   THRAO=  1.00D-10  THRMO=  1.00D-09  THRPROD=  1.00D-09
                         THRSW=  1.00D-05  THROV=  1.00D-12  THRF12=   1.00D-08

 CPU time for 3-index integral evaluation         2.43 sec
 CPU time for first  half transformation          0.31 sec ( 8902.5 MFLOP/sec)
 CPU time for second half transformation          0.02 sec ( 5384.9 MFLOP/sec)
 CPU time for sorting                             0.19 sec
 CPU time for fitting                             0.05 sec (27861.0 MFLOP/sec)
 CPU time for tilde quantities                    0.07 sec (26412.6 MFLOP/sec)
 CPU time for assembly                            0.78 sec (30505.0 MFLOP/sec)
 CPU time for tranop_f12                          0.93 sec (32421.5 MFLOP/sec)
 CPU time for f12 integrals (total)               6.91 sec
 F12-matrices built in  3 passes.
 F12-matrices built in  3 passes.
 F12-matrices built in  3 passes.
 F12-matrices built in  3 passes.
 FC-matrix built in  3 passes.
 CPU time for f12 matrices (total)                0.54 sec

 Diagonal F12 approximation with fixed coefficients:  TSING= 0.500,  TTRIP= 0.250 (scaled by -1/beta)

 DF-MP2-F12 energy corrections:
 ------------------------------
 Approx.                                    Singlet             Triplet             Total
 DF-MP2-F12/3*C(DX,FIX)                -0.097482818104     -0.016948468780     -0.114431286885
 DF-MP2-F12/3*C(FIX)                   -0.079884403848     -0.013406513173     -0.093290917021
 DF-MP2-F12/3C(FIX)                    -0.080243786667     -0.013430306132     -0.093674092799

 DF-MP2-F12 correlation energies:
 --------------------------------
 Approx.                                    Singlet             Triplet             Ecorr            Total Energy
 DF-MP2                                -0.537431280126     -0.342915006362     -0.880346286488   -264.666067126476
 DF-MP2-F12/3*C(DX,FIX)                -0.634914098230     -0.359863475143     -0.994777573373   -264.780498413361
 DF-MP2-F12/3*C(FIX)                   -0.617315683974     -0.356321519535     -0.973637203509   -264.759358043497
 DF-MP2-F12/3C(FIX)                    -0.617675066793     -0.356345312494     -0.974020379287   -264.759741219275

 SCS-DF-MP2 energies (F_SING= 1.20000  F_TRIP= 0.62222  F_PARALLEL= 0.33333):
 ----------------------------------------------------------------------------
 SCS-DF-MP2                            -0.858286873443   -264.644007713431
 SCS-DF-MP2-F12/3*C(DX,FIX)            -0.985811969076   -264.771532809064
 SCS-DF-MP2-F12/3*C(FIX)               -0.962489988479   -264.748210828468
 SCS-DF-MP2-F12/3C(FIX)                -0.962936052370   -264.748656892358
 Symmetry transformation completed.

 Number of N-1 electron functions:              12
 Number of N-2 electron functions:              78
 Number of singly external CSFs:              2568
 Number of doubly external CSFs:           3298596
 Total number of CSFs:                     3301165

 Pair and operator lists are different

 Length of J-op  integral file:             474.22 MB
 Length of K-op  integral file:             572.29 MB
 Length of 3-ext integral record:             0.00 MB

 For full I/O caching in triples, increase memory by 50.81 Mwords to 151.09 Mwords.

 Integral transformation finished. Total CPU:  13.64 sec, npass=  1  Memory used:  87.46 MW

 Reference energy:                   -263.78572084

 Adding F12 terms to K(Cij), methodcc=6,  factor=1.0

 ITER.      SQ.NORM     CORR.ENERGY   TOTAL ENERGY   ENERGY CHANGE        DEN1      VAR(S)    VAR(P)  DIIS     TIME
   1      1.20183627    -0.86239923  -264.64812007     0.01796303     0.04643913  0.71D-02  0.55D-02  1  1    31.55
   2      1.21607460    -0.85820966  -264.64393050     0.00418957    -0.02006236  0.85D-04  0.58D-03  2  2    40.58
   3      1.22138830    -0.85830369  -264.64402453    -0.00009403    -0.00235150  0.13D-03  0.32D-04  3  3    50.54
   4      1.22416118    -0.85817822  -264.64389906     0.00012547    -0.00140145  0.74D-05  0.41D-05  4  4    59.54
   5      1.22517585    -0.85814115  -264.64386199     0.00003707    -0.00036179  0.55D-06  0.28D-06  5  5    68.89
   6      1.22533564    -0.85811469  -264.64383553     0.00002646    -0.00000788  0.39D-07  0.23D-07  6  6    78.00
   7      1.22536457    -0.85811230  -264.64383314     0.00000238    -0.00000615  0.25D-08  0.39D-08  6  4    87.43
   8      1.22536490    -0.85811182  -264.64383266     0.00000048     0.00000191  0.39D-09  0.27D-09  6  1    96.60
   9      1.22536551    -0.85811189  -264.64383273    -0.00000007     0.00000056  0.26D-10  0.21D-10  6  2   105.88

 Norm of t1 vector:      0.10542343      S-energy:     0.00000124      T1 diagnostic:  0.01521656
                                                                       D1 diagnostic:  0.04465899

 Adding energy correction from Wij-K(Fij), methodcc=6  factor=1.0
 
  CCSD correlation energy              -0.858111886910
  MP2-F12 correction (uncoupled)       -0.092523185612
  C*T doubles correction               -0.001472744472
  f12b correction                       0.015402418903


 Total CPU time for triples:    207.39 sec


 RESULTS
 =======

  Reference energy                   -263.769758780566
  F12 singles correction               -0.015962059423

 F12 singles corrections added to reference energy

  New reference energy               -263.785720839989

  F12a singlet correction              -0.080446753381
  F12a triplet correction              -0.013549176702
  F12a total correction                -0.093995930084

 F12a corrections for ansatz F12/3C(FIX) added to CCSD energy
 
  CCSD-F12a singlet pair energy        -0.641605407434
  CCSD-F12a triplet pair energy        -0.310503647089
  CCSD-F12a correlation energy         -0.952107816993

  Triples (T) contribution             -0.037546066909
  Total correlation energy             -0.989653883902

  CCSD-F12a total energy             -264.737828656982
  CCSD[T]-F12a energy                -264.777894878559
  CCSD-T-F12a energy                 -264.774444003418
 !CCSD(T)-F12a total energy          -264.775374723891

 F12b corrections for ansatz F12/3C(FIX) added to CCSD(T)-F12a energy

  CCSD-F12b singlet pair energy        -0.627427005728
  CCSD-F12b triplet pair energy        -0.309279629892
  CCSD-F12b correlation energy         -0.936705398090

  Triples (T) contribution             -0.037546066909
  Total correlation energy             -0.974251464999

  CCSD-F12b total energy             -264.722426238079
  CCSD[T]-F12b energy                -264.762492459656
  CCSD-T-F12b energy                 -264.759041584515
 !CCSD(T)-F12b total energy          -264.759972304988

 Timing summary (sec):

 STEP                 CPU(USER)    SYS     CPU(TOT)    WALL
 Transformation         13.75      1.15     14.90     14.89
 CCSD iterations        82.92      3.15     86.07     86.23
 Triples               207.39      2.29    209.68    209.58
 MP2-F12                 9.23      1.31     10.54     10.66
 F12b energy             6.27      0.06      6.33      6.60

 Program statistics:

 Available memory in ccsd:                99998934
 Min. memory needed in ccsd:               8644845
 Max. memory used in ccsd:                11598633
 Max. memory used in cckext:               8768967 (10 integral passes)



 **********************************************************************************************************************************
 DATASETS  * FILE   NREC   LENGTH (MB)   RECORD NAMES
              1      20      527.84       500      610      700      900      950      970     1000      129      960     1100   
                                          VAR    BASINP    GEOM    SYMINP    ZMAT    AOBASIS   BASIS     P2S    ABASIS      S 
                                         1400     1410     1200     1210     1080     1600     1650     1700      960(1)  1380   
                                           T        V       H0       H01     AOSYM     SMH    MOLCAS    OPER    ABASIS    JKOP   

              2       5        2.50       700     1000     2100     7360     7350   
                                         GEOM     BASIS     RHF    F12ABS    EF12   

 PROGRAMS   *        TOTAL   CCSD(T)        HF       INT
 CPU TIMES  *       342.05    319.71     11.74     10.52
 REAL TIME  *       353.08 SEC
 DISK USED  *         4.17 GB      
 SF USED    *         1.91 GB      
 GA USED    *         2.40 MB       (max)       0.00 MB       (current)
 **********************************************************************************************************************************

     CCSD(T)-F12        HF-SCF  
   -264.75997230   -263.76975878
 **********************************************************************************************************************************
 Variable memory released
