
 Primary working directories    : /scratch/kee
 Secondary working directories  : /scratch/kee
 Wavefunction directory         : /home/kee/wfu/
 Main file repository           : /scratch/kee/

 ARCHNAME  : Linux/x86_64
 FC        : /opt/intel/composer_xe_2015.0.090/bin/intel64/ifort
 FCVERSION : 15.0.0
 BLASLIB   : -L/opt/intel/mkl/lib/intel64 -lmkl_intel_ilp64 -lmkl_sequential -lmkl_core
 id        : emory

 Nodes     nprocs
 node22       3
 Number of processes for MPI-2 version of Molpro:   nprocs(total)=    4   nprocs(compute)=    3   nprocs(helper)=    1
 ga_uses_ma=false, calling ma_init with nominal heap.
 GA-space will be limited to   8.0 MW (determined by -G option)

 Using customized tuning parameters: mindgm=7; mindgv=32; mindgc=1; mindgr=1; noblas=0; mincuda=1000; minvec=7
 default implementation of scratch files=sf  

 ***,co2h2o
 memory,100,m
 basis avtz
 geomtype = xyz
 geometry = {
 6
    -264.76489694
 O     0.82869278    1.16169550    0.00000000
 O     0.82658011   -1.16233555    0.00000000
 O   -17.44123341    0.00685658    0.00000000
 H   -18.02486642    0.76745123    0.00000000
 H   -18.02459831   -0.75394534    0.00000000
 C     0.80876519   -0.00029961    0.00000000
 }
 hf
 ccsd(t)-f12
 ---

 Variables initialized (665), CPU time= 0.01 sec
 Commands  initialized (462), CPU time= 0.01 sec, 486 directives.
 Default parameters read. Elapsed time= 0.06 sec

 Checking input...
 Passed
1


                                         ***  PROGRAM SYSTEM MOLPRO  ***
                         Copyright, University College Cardiff Consultants Limited, 2008

                                    Version 2010.1 linked 9 Dec 2014 15:06:28 


 **********************************************************************************************************************************
 LABEL *   co2h2o                                                                        
 Linux-2.6.32-504.el6.x86_64/node22(x86_64) 64 bit mpp version                           DATE: 11-Dec-16          TIME: 23:16:16  
 **********************************************************************************************************************************

 Patch level:      19
 **********************************************************************************************************************************

 Variable memory set to  100000000 words,  buffer space   230000 words

 SETTING BASIS          =    AVTZ
 SETTING GEOMTYPE       =    XYZ

Geometry recognized as XYZ



 Recomputing integrals since basis changed


 Using spherical harmonics

 Library entry O      S aug-cc-pVTZ          selected for orbital group  1
 Library entry O      P aug-cc-pVTZ          selected for orbital group  1
 Library entry O      D aug-cc-pVTZ          selected for orbital group  1
 Library entry O      F aug-cc-pVTZ          selected for orbital group  1
 Library entry H      S aug-cc-pVTZ          selected for orbital group  2
 Library entry H      P aug-cc-pVTZ          selected for orbital group  2
 Library entry H      D aug-cc-pVTZ          selected for orbital group  2
 Library entry C      S aug-cc-pVTZ          selected for orbital group  3
 Library entry C      P aug-cc-pVTZ          selected for orbital group  3
 Library entry C      D aug-cc-pVTZ          selected for orbital group  3
 Library entry C      F aug-cc-pVTZ          selected for orbital group  3

1PROGRAM * SEWARD (Integral evaluation for generally contracted gaussian basis sets)     Author: Roland Lindh, 1990

 Geometry written to block  1 of record 700


 Point group  Cs  



 ATOMIC COORDINATES

 NR  ATOM    CHARGE       X              Y              Z

   1  O       8.00    1.566002401    2.195286343    0.000000000
   2  O       8.00    1.562010034   -2.196495862    0.000000000
   3  O       8.00  -32.959154539    0.012957058    0.000000000
   4  H       1.00  -34.062061089    1.450272644    0.000000000
   5  H       1.00  -34.061554435   -1.424750211    0.000000000
   6  C       6.00    1.528344714   -0.000566181    0.000000000

 Bond lengths in Bohr (Angstrom)

 1-6  2.196175405  2-6  2.196187724  3-4  1.811706088  3-5  1.811708509
     (1.162165971)     (1.162172490)     (0.958713571)     (0.958714852)

 Bond angles

  1-6-2  178.13918425   4-3-5  105.01947441

 NUCLEAR CHARGE:                   32
 NUMBER OF PRIMITIVE AOS:         322
 NUMBER OF SYMMETRY AOS:          282
 NUMBER OF CONTRACTIONS:          230   ( 152A'  +  78A"  )
 NUMBER OF CORE ORBITALS:           4   (   4A'  +   0A"  )
 NUMBER OF VALENCE ORBITALS:       18   (  14A'  +   4A"  )


 NUCLEAR REPULSION ENERGY   73.78886000

 EXTRA SYMMETRY OF AOS IN SYMMETRY 2:   1 1 1 1 1 1 1 1 1 1   1 1 1 1 1 1 1 1 1 1   1 1 1 1 1 1 1 1 1 1   1 1 2 2 2 2 2 2 2 2
                                        2 2 2 2 2 2 2 2 2 2   2 2 2 2 2 2 2 2 2 2   2 2 1 1 1 1 1 1 1 1   1 1 1 1 1 1 1 1

 Eigenvalues of metric

         1 0.349E-03 0.384E-03 0.393E-03 0.420E-03 0.902E-03 0.922E-03 0.167E-02 0.175E-02
         2 0.318E-02 0.348E-02 0.595E-02 0.124E-01 0.136E-01 0.296E-01 0.297E-01 0.319E-01


 Contracted 2-electron integrals neglected if value below      1.0D-11
 AO integral compression algorithm  1   Integral accuracy      1.0D-11

     223.609 MB (compressed) written to integral file ( 44.4%)

     Node minimum: 67.895 MB, node maximum: 78.905 MB


 NUMBER OF SORTED TWO-ELECTRON INTEGRALS:   59950380.     BUFFER LENGTH:  32768
 NUMBER OF SEGMENTS:   4  SEGMENT LENGTH:   15995235      RECORD LENGTH: 524288

 Memory used in sort:      16.55 MW

 SORT1 READ    62859499. AND WROTE    15689083. INTEGRALS IN     47 RECORDS. CPU TIME:     0.88 SEC, REAL TIME:     1.05 SEC
 SORT2 READ    46848433. AND WROTE   179836431. INTEGRALS IN    903 RECORDS. CPU TIME:     0.52 SEC, REAL TIME:     0.70 SEC

 Node minimum:    59940574.  Node maximum:    59950380. integrals

 OPERATOR DM      FOR CENTER  0  COORDINATES:    0.000000    0.000000    0.000000


 **********************************************************************************************************************************
 DATASETS  * FILE   NREC   LENGTH (MB)   RECORD NAMES
              1      18        3.74       500      610      700      900      950      970     1000      129      960     1100   
                                          VAR    BASINP    GEOM    SYMINP    ZMAT    AOBASIS   BASIS     P2S    ABASIS      S 
                                         1400     1410     1200     1210     1080     1600     1650     1700   
                                           T        V       H0       H01     AOSYM     SMH    MOLCAS    OPER   

 PROGRAMS   *        TOTAL       INT
 CPU TIMES  *         3.16      3.05
 REAL TIME  *         4.13 SEC
 DISK USED  *       798.78 MB      
 GA USED    *         0.00 MB       (max)       0.00 MB       (current)
 **********************************************************************************************************************************

1PROGRAM * RHF-SCF (CLOSED SHELL)       Authors: W. Meyer, H.-J. Werner


 NUMBER OF ELECTRONS:      16+   16-
 CONVERGENCE THRESHOLDS:    1.00E-05 (Density)    1.00E-07 (Energy)
 MAX. NUMBER OF ITERATIONS:       60
 INTERPOLATION TYPE:            DIIS
 INTERPOLATION STEPS:              2 (START)      1 (STEP)
 LEVEL SHIFTS:                  0.00 (CLOSED)  0.00 (OPEN) 



 Orbital guess generated from atomic densities. Full valence occupancy:   18   4

 Molecular orbital dump at record        2100.2

 Initial alpha occupancy:  13   3
 Initial beta  occupancy:  13   3
 Wave function symmetry:    1

 ITERATION    DDIFF          GRAD             ENERGY        2-EL.EN.            DIPOLE MOMENTS         DIIS
    1      0.000D+00      0.000D+00      -263.66021600    343.031720   -1.18419   -0.00012    0.00000    0
    2      0.000D+00      0.630D-02      -263.72549874    338.492531   -0.67890   -0.00010    0.00000    1
    3      0.101D-01      0.428D-02      -263.76888459    341.047674   -0.80536   -0.00009    0.00000    2
    4      0.416D-02      0.402D-03      -263.76937975    340.834342   -0.80885   -0.00010    0.00000    3
    5      0.485D-03      0.117D-03      -263.76943773    340.837571   -0.80335   -0.00009    0.00000    4
    6      0.181D-03      0.471D-04      -263.76944488    340.851818   -0.80402   -0.00010    0.00000    5
    7      0.603D-04      0.116D-04      -263.76944561    340.843539   -0.80357   -0.00010    0.00000    6
    8      0.197D-04      0.254D-05      -263.76944566    340.844834   -0.80358   -0.00010    0.00000    7
    9      0.541D-05      0.852D-06      -263.76944566    340.844648   -0.80355   -0.00010    0.00000    0

 Final occupancy:  13   3

 !RHF STATE 1.1 Energy               -263.769445663292
 Nuclear energy                        73.78886000
 One-electron energy                 -507.98062953
 Two-electron energy                  170.42232386
 Virial quotient                       -1.00182788
 !RHF STATE 1.1 Dipole moment          -0.80354635    -0.00009511     0.00000000
 Dipole moment /Debye                  -2.04227734    -0.00024172     0.00000000

 Orbital energies:

         1.1          2.1          3.1          4.1          5.1          6.1          7.1          8.1          9.1         10.1
    -20.652834   -20.652788   -20.567302   -11.461586    -1.530496    -1.477392    -1.352546    -0.800699    -0.742944    -0.718083

        11.1         12.1         13.1         14.1         15.1
     -0.714545    -0.583745    -0.544148     0.029397     0.047592

         1.2          2.2          3.2          4.2          5.2
     -0.714554    -0.544172    -0.510158     0.073491     0.158429


 **********************************************************************************************************************************
 DATASETS  * FILE   NREC   LENGTH (MB)   RECORD NAMES
              1      18        3.76       500      610      700      900      950      970     1000      129      960     1100   
                                          VAR    BASINP    GEOM    SYMINP    ZMAT    AOBASIS   BASIS     P2S    ABASIS      S 
                                         1400     1410     1200     1210     1080     1600     1650     1700   
                                           T        V       H0       H01     AOSYM     SMH    MOLCAS    OPER   

              2       3        0.96       700     1000     2100   
                                         GEOM     BASIS     RHF  

 PROGRAMS   *        TOTAL        HF       INT
 CPU TIMES  *         5.76      2.60      3.05
 REAL TIME  *         6.88 SEC
 DISK USED  *       823.16 MB      
 SF USED    *         0.12 MB      
 GA USED    *         0.00 MB       (max)       0.00 MB       (current)
 **********************************************************************************************************************************


1PROGRAM * CCSD (Closed-shell coupled cluster)     Authors: C. Hampel, H.-J. Werner, 1991, M. Deegan, P.J. Knowles, 1992

                                  CCSD-F12 implementation by  H.-J. Werner, 2007

                   Density fitting integral evaluation by F.R. Manby, 2003,2007, G. Knizia, 2010

 Basis set CC-PVTZ/JKFIT generated.      Number of basis functions:   376 
 Basis set AUG-CC-PVTZ/MP2FIT generated. Number of basis functions:   516 

 Convergence thresholds:  THRVAR = 1.00D-08  THRDEN = 1.00D-06

 CCSD(T)     terms to be evaluated (factor= 1.000)


 Number of core orbitals:           4 (   4   0 )
 Number of closed-shell orbitals:  12 (   9   3 )
 Number of external orbitals:     214 ( 139  75 )

 Molecular orbitals read from record     2100.2  Type=RHF/CANONICAL (state 1.1)

 MP2-F12 correlation treatment (H.-J. Werner, 2006)
 --------------------------------------------------

 Using MP2-F12 with ansatz 3C(FIX)

 Using projected zeroth-order Hamiltonian (+Z)

 FOCKRIB=T FOCKRIC=T FOCKRIP=T CABSP=T CABSA=T CABSK=T CABSF=T GBC=F EBC=F DMAT=T NOFIK=T NOPAO=1 SOLVE=-1  USEPAO=0
 EXCH_A= T EXCH_B= F EXCH_C= F EXCH_P= F
 
 Geminal basis:    OPTFULL  GEM_TYPE=SLATER  BETA=1.0  NGEM=6

 Optimizing Gaussian exponents for each gem_beta

 Geminal optimization for beta= 1.0000
 Weight function:   m=0, omega= 1.4646

 Augmented Hessian optimization of geminal fit. Trust ratio= 0.40000
 Convergence reached after   2 iterations. Final gradient= 8.24D-16, Step= 4.32D-06, Delta= 1.28D-09
 
 Alpha:                 0.19532     0.81920     2.85917     9.50073    35.69989   197.79328
 Coeff:                 0.27070     0.30552     0.18297     0.10986     0.06810     0.04224
 

 Symmetry turned off. Reference energy:       -263.769445663292

 All pairs explicitly correlated. Number of r12-pairs:           78
 
 AO(A)-basis ORBITAL           loaded. Number of functions:     230
 RI(R)-basis CC-PVTZ/JKFIT     loaded. Number of functions:     376
 DF-basis CC-PVTZ/JKFIT        loaded. Number of functions:     376

 Screening thresholds:   THRAO=  1.00D-10  THRMO=  1.00D-09  THRPROD=  1.00D-09
                         THRSW=  1.00D-05  THROV=  1.00D-12  THRF12=   1.00D-08

 CPU time for Fock operators                      0.80 sec
 
 Construction of ABS:
 Smallest eigenvalue of S          2.57E-04  (threshold= 1.00E-08)
 Ratio eigmin/eigmax               1.83E-06  (threshold= 1.00E-09)
 Smallest eigenvalue of S kept     2.57E-04  (threshold= 2.57E-04, 0 functions deleted, 376 kept)
 
 Construction of CABS:
 Smallest eigenvalue of S          2.30E-08  (threshold= 1.00E-08)
 Ratio eigmin/eigmax               2.30E-08  (threshold= 1.00E-09)
 Smallest eigenvalue of S kept     2.30E-08  (threshold= 2.30E-08, 0 functions deleted, 376 kept)
 
 CPU time for CABS singles                        0.16 sec

 CABS-singles contribution of  -0.01592492 patched into reference energy.
 New reference energy        -263.78537058
 
 AO(A)-basis ORBITAL           loaded. Number of functions:     230
 RI(R)-basis CC-PVTZ/JKFIT     loaded. Number of functions:     376
 DF-basis AUG-CC-PVTZ/MP2FIT   loaded. Number of functions:     516

 Screening thresholds:   THRAO=  1.00D-10  THRMO=  1.00D-09  THRPROD=  1.00D-09
                         THRSW=  1.00D-05  THROV=  1.00D-12  THRF12=   1.00D-08

 CPU time for 3-index integral evaluation         1.39 sec
 CPU time for first  half transformation          0.09 sec ( 9878.0 MFLOP/sec)
 CPU time for second half transformation          0.03 sec ( 1929.2 MFLOP/sec)
 CPU time for sorting                             0.07 sec
 CPU time for fitting                             0.05 sec (27861.0 MFLOP/sec)
 CPU time for tilde quantities                    0.05 sec (36977.6 MFLOP/sec)
 CPU time for assembly                            0.76 sec (31473.9 MFLOP/sec)
 CPU time for tranop_f12                          0.86 sec (34885.5 MFLOP/sec)
 CPU time for f12 integrals (total)               5.24 sec
 F12-matrices built in  3 passes.
 F12-matrices built in  3 passes.
 F12-matrices built in  3 passes.
 F12-matrices built in  3 passes.
 FC-matrix built in  3 passes.
 CPU time for f12 matrices (total)                0.49 sec

 Diagonal F12 approximation with fixed coefficients:  TSING= 0.500,  TTRIP= 0.250 (scaled by -1/beta)

 DF-MP2-F12 energy corrections:
 ------------------------------
 Approx.                                    Singlet             Triplet             Total
 DF-MP2-F12/3*C(DX,FIX)                -0.097454507479     -0.016934568815     -0.114389076294
 DF-MP2-F12/3*C(FIX)                   -0.079869882057     -0.013396598931     -0.093266480987
 DF-MP2-F12/3C(FIX)                    -0.080230693038     -0.013419724423     -0.093650417461

 DF-MP2-F12 correlation energies:
 --------------------------------
 Approx.                                    Singlet             Triplet             Ecorr            Total Energy
 DF-MP2                                -0.537728825816     -0.343071436728     -0.880800262544   -264.666170846872
 DF-MP2-F12/3*C(DX,FIX)                -0.635183333296     -0.360006005543     -0.995189338838   -264.780559923166
 DF-MP2-F12/3*C(FIX)                   -0.617598707873     -0.356468035659     -0.974066743532   -264.759437327860
 DF-MP2-F12/3C(FIX)                    -0.617959518854     -0.356491161151     -0.974450680006   -264.759821264334

 SCS-DF-MP2 energies (F_SING= 1.20000  F_TRIP= 0.62222  F_PARALLEL= 0.33333):
 ----------------------------------------------------------------------------
 SCS-DF-MP2                            -0.858741262721   -264.644111847049
 SCS-DF-MP2-F12/3*C(DX,FIX)            -0.986223736737   -264.771594321065
 SCS-DF-MP2-F12/3*C(FIX)               -0.962920782746   -264.748291367074
 SCS-DF-MP2-F12/3C(FIX)                -0.963368145119   -264.748738729447

 Symmetry restored.
 Symmetry transformation completed.

 Number of N-1 electron functions:              12
 Number of N-2 electron functions:              78
 Number of singly external CSFs:              1476
 Number of doubly external CSFs:           1686804
 Total number of CSFs:                     1688281

 Pair and operator lists are different

 Length of J-op  integral file:             466.42 MB
 Length of K-op  integral file:             526.62 MB
 Length of 3-ext integral record:             0.00 MB

 Memory could be reduced to 76.61 Mwords without degradation in triples

 Integral transformation finished. Total CPU:   3.72 sec, npass=  1  Memory used:  24.61 MW

 Reference energy:                   -263.78537058

 Adding F12 terms to K(Cij), methodcc=6,  factor=1.0

 ITER.      SQ.NORM     CORR.ENERGY   TOTAL ENERGY   ENERGY CHANGE        DEN1      VAR(S)    VAR(P)  DIIS     TIME
   1      1.20215094    -0.86275115  -264.64812173     0.01806559     0.04669944  0.72D-02  0.56D-02  1  1    12.94
   2      1.21646406    -0.85852340  -264.64389399     0.00422775    -0.02015346  0.86D-04  0.59D-03  2  2    15.15
   3      1.22182423    -0.85861936  -264.64398995    -0.00009596    -0.00236381  0.13D-03  0.32D-04  3  3    17.38
   4      1.22462586    -0.85849148  -264.64386206     0.00012788    -0.00141123  0.76D-05  0.41D-05  4  4    19.61
   5      1.22565587    -0.85845377  -264.64382435     0.00003771    -0.00036641  0.56D-06  0.29D-06  5  5    22.04
   6      1.22581806    -0.85842691  -264.64379749     0.00002686    -0.00000805  0.40D-07  0.24D-07  6  6    24.62
   7      1.22584741    -0.85842448  -264.64379507     0.00000242    -0.00000622  0.25D-08  0.40D-08  6  4    27.22
   8      1.22584771    -0.85842400  -264.64379458     0.00000049     0.00000195  0.39D-09  0.27D-09  6  1    29.89
   9      1.22584832    -0.85842406  -264.64379465    -0.00000007     0.00000056  0.26D-10  0.21D-10  6  2    32.56

 Norm of t1 vector:      0.10595819      S-energy:    -0.00000002      T1 diagnostic:  0.01529375
                                                                       D1 diagnostic:  0.04494257

 Adding energy correction from Wij-K(Fij), methodcc=6  factor=1.0
 
  CCSD correlation energy              -0.858424061905
  MP2-F12 correction (uncoupled)       -0.092493412996
  C*T doubles correction               -0.001475759952
  f12b correction                       0.015407300694


 Total CPU time for triples:     78.19 sec


 RESULTS
 =======

  Reference energy                   -263.769445663292
  F12 singles correction               -0.015924921036

 F12 singles corrections added to reference energy

  New reference energy               -263.785370584328

  F12a singlet correction              -0.080430708238
  F12a triplet correction              -0.013538464710
  F12a total correction                -0.093969172948

 F12a corrections for ansatz F12/3C(FIX) added to CCSD energy
 
  CCSD-F12a singlet pair energy        -0.641895821968
  CCSD-F12a triplet pair energy        -0.310497388433
  CCSD-F12a correlation energy         -0.952393234853

  Triples (T) contribution             -0.037639358581
  Total correlation energy             -0.990032593434

  CCSD-F12a total energy             -264.737763819181
  CCSD[T]-F12a energy                -264.777946999321
  CCSD-T-F12a energy                 -264.774465509206
 !CCSD(T)-F12a total energy          -264.775403177762

 F12b corrections for ansatz F12/3C(FIX) added to CCSD(T)-F12a energy

  CCSD-F12b singlet pair energy        -0.627711874424
  CCSD-F12b triplet pair energy        -0.309274035283
  CCSD-F12b correlation energy         -0.936985934159

  Triples (T) contribution             -0.037639358581
  Total correlation energy             -0.974625292740

  CCSD-F12b total energy             -264.722356518486
  CCSD[T]-F12b energy                -264.762539698627
  CCSD-T-F12b energy                 -264.759058208512
 !CCSD(T)-F12b total energy          -264.759995877068

 Timing summary (sec):

 STEP                 CPU(USER)    SYS     CPU(TOT)    WALL
 Transformation          3.75      0.54      4.29      4.28
 CCSD iterations        21.73      1.38     23.11     23.11
 Triples                78.19      1.60     79.79     79.75
 MP2-F12                 7.09      1.14      8.23      8.24
 F12b energy             1.51      0.02      1.53      1.53

 Program statistics:

 Available memory in ccsd:                99998934
 Min. memory needed in ccsd:               4458306
 Max. memory used in ccsd:                 5958390
 Max. memory used in cckext:               6352469 (10 integral passes)



 **********************************************************************************************************************************
 DATASETS  * FILE   NREC   LENGTH (MB)   RECORD NAMES
              1      20      269.66       500      610      700      900      950      970     1000      129      960     1100   
                                          VAR    BASINP    GEOM    SYMINP    ZMAT    AOBASIS   BASIS     P2S    ABASIS      S 
                                         1400     1410     1200     1210     1080     1600     1650     1700      960(1)  1380   
                                           T        V       H0       H01     AOSYM     SMH    MOLCAS    OPER    ABASIS    JKOP   

              2       5        1.55       700     1000     2100     7360     7350   
                                         GEOM     BASIS     RHF    F12ABS    EF12   

 PROGRAMS   *        TOTAL   CCSD(T)        HF       INT
 CPU TIMES  *       118.20    112.43      2.60      3.05
 REAL TIME  *       124.12 SEC
 DISK USED  *         1.26 GB      
 SF USED    *         1.53 GB      
 GA USED    *         2.40 MB       (max)       0.00 MB       (current)
 **********************************************************************************************************************************

     CCSD(T)-F12        HF-SCF  
   -264.75999588   -263.76944566
 **********************************************************************************************************************************
 Variable memory released
