
 Primary working directories    : /scratch/kee
 Secondary working directories  : /scratch/kee
 Wavefunction directory         : /home/kee/wfu/
 Main file repository           : /scratch/kee/

 ARCHNAME  : Linux/x86_64
 FC        : /opt/intel/composer_xe_2015.0.090/bin/intel64/ifort
 FCVERSION : 15.0.0
 BLASLIB   : -L/opt/intel/mkl/lib/intel64 -lmkl_intel_ilp64 -lmkl_sequential -lmkl_core
 id        : emory

 Nodes     nprocs
 node17       3
 Number of processes for MPI-2 version of Molpro:   nprocs(total)=    4   nprocs(compute)=    3   nprocs(helper)=    1
 ga_uses_ma=false, calling ma_init with nominal heap.
 GA-space will be limited to   8.0 MW (determined by -G option)

 Using customized tuning parameters: mindgm=7; mindgv=32; mindgc=1; mindgr=1; noblas=0; mincuda=1000; minvec=7
 default implementation of scratch files=sf  

 ***,co2h2o
 memory,100,m
 basis avtz
 geomtype = xyz
 geometry = {
 6
       0.00000777
 O    10.97257393   -1.10347931    0.00000000
 O    11.76744404    1.08065151   -0.00000000
 O     1.64356282    0.00000000    0.00000000
 H     0.89556774    0.58340495    0.10287003
 H     2.39598802    0.58686026    0.10347930
 C    11.34356282    0.00000000    0.00000000
 }
 hf
 ccsd(t)-f12
 ---

 Variables initialized (665), CPU time= 0.01 sec
 Commands  initialized (462), CPU time= 0.00 sec, 486 directives.
 Default parameters read. Elapsed time= 0.04 sec

 Checking input...
 Passed
1


                                         ***  PROGRAM SYSTEM MOLPRO  ***
                         Copyright, University College Cardiff Consultants Limited, 2008

                                    Version 2010.1 linked 9 Dec 2014 15:06:28 


 **********************************************************************************************************************************
 LABEL *   co2h2o                                                                        
 Linux-2.6.32-504.el6.x86_64/node17(x86_64) 64 bit mpp version                           DATE: 18-Jan-17          TIME: 21:15:05  
 **********************************************************************************************************************************

 Patch level:      19
 **********************************************************************************************************************************

 Variable memory set to  100000000 words,  buffer space   230000 words

 SETTING BASIS          =    AVTZ
 SETTING GEOMTYPE       =    XYZ

Geometry recognized as XYZ



 Recomputing integrals since basis changed


 Using spherical harmonics

 Library entry O      S aug-cc-pVTZ          selected for orbital group  1
 Library entry O      P aug-cc-pVTZ          selected for orbital group  1
 Library entry O      D aug-cc-pVTZ          selected for orbital group  1
 Library entry O      F aug-cc-pVTZ          selected for orbital group  1
 Library entry H      S aug-cc-pVTZ          selected for orbital group  2
 Library entry H      P aug-cc-pVTZ          selected for orbital group  2
 Library entry H      D aug-cc-pVTZ          selected for orbital group  2
 Library entry C      S aug-cc-pVTZ          selected for orbital group  3
 Library entry C      P aug-cc-pVTZ          selected for orbital group  3
 Library entry C      D aug-cc-pVTZ          selected for orbital group  3
 Library entry C      F aug-cc-pVTZ          selected for orbital group  3

1PROGRAM * SEWARD (Integral evaluation for generally contracted gaussian basis sets)     Author: Roland Lindh, 1990

 Geometry written to block  1 of record 700


 Point group  C1  



 ATOMIC COORDINATES

 NR  ATOM    CHARGE       X              Y              Z

   1  O       8.00   20.735159684   -2.085273688    0.000000000
   2  O       8.00   22.237246502    2.042135397    0.000000000
   3  O       8.00    3.105883610    0.000000000    0.000000000
   4  H       1.00    1.692377761    1.102475579    0.194396184
   5  H       1.00    4.527761172    1.109005169    0.195547537
   6  C       6.00   21.436227084    0.000000000    0.000000000

 Bond lengths in Bohr (Angstrom)

 1-6  2.199968602  2-6  2.193615529  3-4  1.803119814  3-5  1.813799081
     (1.164173245)     (1.160811343)     (0.954169911)     (0.959821135)

 Bond angles

  1-6-2  177.16520951   4-3-5  103.24222917

 NUCLEAR CHARGE:                   32
 NUMBER OF PRIMITIVE AOS:         322
 NUMBER OF SYMMETRY AOS:          282
 NUMBER OF CONTRACTIONS:          230   ( 230A   )
 NUMBER OF CORE ORBITALS:           4   (   4A   )
 NUMBER OF VALENCE ORBITALS:       18   (  18A   )


 NUCLEAR REPULSION ENERGY   79.41769136


 Eigenvalues of metric

         1 0.350E-03 0.379E-03 0.387E-03 0.424E-03 0.903E-03 0.923E-03 0.163E-02 0.176E-02


 Contracted 2-electron integrals neglected if value below      1.0D-11
 AO integral compression algorithm  1   Integral accuracy      1.0D-11

     395.051 MB (compressed) written to integral file ( 18.2%)

     Node minimum: 120.062 MB, node maximum: 139.198 MB


 NUMBER OF SORTED TWO-ELECTRON INTEGRALS:  117629820.     BUFFER LENGTH:  32768
 NUMBER OF SEGMENTS:   8  SEGMENT LENGTH:   15997437      RECORD LENGTH: 524288

 Memory used in sort:      16.55 MW

 SORT1 READ   270992333. AND WROTE    26667346. INTEGRALS IN     80 RECORDS. CPU TIME:     2.23 SEC, REAL TIME:     2.54 SEC
 SORT2 READ    79805247. AND WROTE   352862895. INTEGRALS IN   1554 RECORDS. CPU TIME:     0.91 SEC, REAL TIME:     1.20 SEC

 Node minimum:   117612110.  Node maximum:   117629820. integrals

 OPERATOR DM      FOR CENTER  0  COORDINATES:    0.000000    0.000000    0.000000


 **********************************************************************************************************************************
 DATASETS  * FILE   NREC   LENGTH (MB)   RECORD NAMES
              1      18        4.62       500      610      700      900      950      970     1000      129      960     1100   
                                          VAR    BASINP    GEOM    SYMINP    ZMAT    AOBASIS   BASIS     P2S    ABASIS      S 
                                         1400     1410     1200     1210     1080     1600     1650     1700   
                                           T        V       H0       H01     AOSYM     SMH    MOLCAS    OPER   

 PROGRAMS   *        TOTAL       INT
 CPU TIMES  *         5.72      5.65
 REAL TIME  *         6.49 SEC
 DISK USED  *         1.33 GB      
 GA USED    *         0.00 MB       (max)       0.00 MB       (current)
 **********************************************************************************************************************************

1PROGRAM * RHF-SCF (CLOSED SHELL)       Authors: W. Meyer, H.-J. Werner


 NUMBER OF ELECTRONS:      16+   16-    SPACE SYMMETRY=1    SPIN SYMMETRY=Singlet 
 CONVERGENCE THRESHOLDS:    1.00E-05 (Density)    1.00E-07 (Energy)
 MAX. NUMBER OF ITERATIONS:       60
 INTERPOLATION TYPE:            DIIS
 INTERPOLATION STEPS:              2 (START)      1 (STEP)
 LEVEL SHIFTS:                  0.00 (CLOSED)  0.00 (OPEN) 



 Orbital guess generated from atomic densities. Full valence occupancy:   22

 Molecular orbital dump at record        2100.2

 ITERATION    DDIFF          GRAD             ENERGY        2-EL.EN.            DIPOLE MOMENTS         DIIS
    1      0.000D+00      0.000D+00      -263.65945449    354.205051   -0.06882    1.17032    0.19888    0
    2      0.000D+00      0.469D-02      -263.72497647    349.693535   -0.01142    0.67108    0.11707    1
    3      0.752D-02      0.319D-02      -263.76855765    352.244182   -0.03316    0.79775    0.13661    2
    4      0.310D-02      0.300D-03      -263.76905436    352.030922   -0.03246    0.79994    0.13749    3
    5      0.356D-03      0.875D-04      -263.76911295    352.034205   -0.03213    0.79596    0.13651    4
    6      0.133D-03      0.354D-04      -263.76912023    352.048537   -0.03228    0.79583    0.13666    5
    7      0.443D-04      0.875D-05      -263.76912097    352.040399   -0.03214    0.79588    0.13658    6
    8      0.145D-04      0.213D-05      -263.76912102    352.041482   -0.03226    0.79557    0.13658    7
    9      0.401D-05      0.131D-05      -263.76912103    352.041505   -0.03216    0.79583    0.13658    0

 Final occupancy:  16

 !RHF STATE 1.1 Energy               -263.769121026361
 Nuclear energy                        79.41769136
 One-electron energy                 -519.20756507
 Two-electron energy                  176.02075268
 Virial quotient                       -1.00179908
 !RHF STATE 1.1 Dipole moment          -0.03216332     0.79582979     0.13657926
 Dipole moment /Debye                  -0.08174566     2.02266507     0.34712712

 Orbital energies:

         1.1          2.1          3.1          4.1          5.1          6.1          7.1          8.1          9.1         10.1
    -20.654367   -20.653175   -20.568015   -11.462634    -1.531294    -1.477983    -1.354981    -0.801626    -0.743715    -0.715808

        11.1         12.1         13.1         14.1         15.1         16.1         17.1         18.1
     -0.715310    -0.715301    -0.587797    -0.545004    -0.544953    -0.511066     0.028036     0.040846


 **********************************************************************************************************************************
 DATASETS  * FILE   NREC   LENGTH (MB)   RECORD NAMES
              1      18        4.62       500      610      700      900      950      970     1000      129      960     1100   
                                          VAR    BASINP    GEOM    SYMINP    ZMAT    AOBASIS   BASIS     P2S    ABASIS      S 
                                         1400     1410     1200     1210     1080     1600     1650     1700   
                                           T        V       H0       H01     AOSYM     SMH    MOLCAS    OPER   

              2       3        1.44       700     1000     2100   
                                         GEOM     BASIS     RHF  

 PROGRAMS   *        TOTAL        HF       INT
 CPU TIMES  *        13.40      7.68      5.65
 REAL TIME  *        14.38 SEC
 DISK USED  *         1.37 GB      
 SF USED    *         0.21 MB      
 GA USED    *         0.00 MB       (max)       0.00 MB       (current)
 **********************************************************************************************************************************


1PROGRAM * CCSD (Closed-shell coupled cluster)     Authors: C. Hampel, H.-J. Werner, 1991, M. Deegan, P.J. Knowles, 1992

                                  CCSD-F12 implementation by  H.-J. Werner, 2007

                   Density fitting integral evaluation by F.R. Manby, 2003,2007, G. Knizia, 2010

 Basis set CC-PVTZ/JKFIT generated.      Number of basis functions:   376 
 Basis set AUG-CC-PVTZ/MP2FIT generated. Number of basis functions:   516 

 Convergence thresholds:  THRVAR = 1.00D-08  THRDEN = 1.00D-06

 CCSD(T)     terms to be evaluated (factor= 1.000)


 Number of core orbitals:           4 (   4 )
 Number of closed-shell orbitals:  12 (  12 )
 Number of external orbitals:     214 ( 214 )

 Molecular orbitals read from record     2100.2  Type=RHF/CANONICAL (state 1.1)

 MP2-F12 correlation treatment (H.-J. Werner, 2006)
 --------------------------------------------------

 Using MP2-F12 with ansatz 3C(FIX)

 Using projected zeroth-order Hamiltonian (+Z)

 FOCKRIB=T FOCKRIC=T FOCKRIP=T CABSP=T CABSA=T CABSK=T CABSF=T GBC=F EBC=F DMAT=T NOFIK=T NOPAO=1 SOLVE=-1  USEPAO=0
 EXCH_A= T EXCH_B= F EXCH_C= F EXCH_P= F
 
 Geminal basis:    OPTFULL  GEM_TYPE=SLATER  BETA=1.0  NGEM=6

 Optimizing Gaussian exponents for each gem_beta

 Geminal optimization for beta= 1.0000
 Weight function:   m=0, omega= 1.4646

 Augmented Hessian optimization of geminal fit. Trust ratio= 0.40000
 Convergence reached after   2 iterations. Final gradient= 8.24D-16, Step= 4.32D-06, Delta= 1.28D-09
 
 Alpha:                 0.19532     0.81920     2.85917     9.50073    35.69989   197.79328
 Coeff:                 0.27070     0.30552     0.18297     0.10986     0.06810     0.04224
 

 All pairs explicitly correlated. Number of r12-pairs:           78
 
 AO(A)-basis ORBITAL           loaded. Number of functions:     230
 RI(R)-basis CC-PVTZ/JKFIT     loaded. Number of functions:     376
 DF-basis CC-PVTZ/JKFIT        loaded. Number of functions:     376

 Screening thresholds:   THRAO=  1.00D-10  THRMO=  1.00D-09  THRPROD=  1.00D-09
                         THRSW=  1.00D-05  THROV=  1.00D-12  THRF12=   1.00D-08

 CPU time for Fock operators                      0.92 sec
 
 Construction of ABS:
 Smallest eigenvalue of S          2.58E-04  (threshold= 1.00E-08)
 Ratio eigmin/eigmax               1.84E-06  (threshold= 1.00E-09)
 Smallest eigenvalue of S kept     2.58E-04  (threshold= 2.58E-04, 0 functions deleted, 376 kept)
 
 Construction of CABS:
 Smallest eigenvalue of S          2.30E-08  (threshold= 1.00E-08)
 Ratio eigmin/eigmax               2.30E-08  (threshold= 1.00E-09)
 Smallest eigenvalue of S kept     2.30E-08  (threshold= 2.30E-08, 0 functions deleted, 376 kept)
 
 CPU time for CABS singles                        0.17 sec

 CABS-singles contribution of  -0.01593138 patched into reference energy.
 New reference energy        -263.78505241
 
 AO(A)-basis ORBITAL           loaded. Number of functions:     230
 RI(R)-basis CC-PVTZ/JKFIT     loaded. Number of functions:     376
 DF-basis AUG-CC-PVTZ/MP2FIT   loaded. Number of functions:     516

 Screening thresholds:   THRAO=  1.00D-10  THRMO=  1.00D-09  THRPROD=  1.00D-09
                         THRSW=  1.00D-05  THROV=  1.00D-12  THRF12=   1.00D-08

 CPU time for 3-index integral evaluation         1.68 sec
 CPU time for first  half transformation          0.23 sec ( 8614.2 MFLOP/sec)
 CPU time for second half transformation          0.01 sec ( 9336.7 MFLOP/sec)
 CPU time for sorting                             0.14 sec
 CPU time for fitting                             0.07 sec (19900.7 MFLOP/sec)
 CPU time for tilde quantities                    0.07 sec (26412.6 MFLOP/sec)
 CPU time for assembly                            0.82 sec (28464.9 MFLOP/sec)
 CPU time for tranop_f12                          0.93 sec (32302.9 MFLOP/sec)
 CPU time for f12 integrals (total)               6.05 sec
 F12-matrices built in  3 passes.
 F12-matrices built in  3 passes.
 F12-matrices built in  3 passes.
 F12-matrices built in  3 passes.
 FC-matrix built in  3 passes.
 CPU time for f12 matrices (total)                0.58 sec

 Diagonal F12 approximation with fixed coefficients:  TSING= 0.500,  TTRIP= 0.250 (scaled by -1/beta)

 DF-MP2-F12 energy corrections:
 ------------------------------
 Approx.                                    Singlet             Triplet             Total
 DF-MP2-F12/3*C(DX,FIX)                -0.097443441431     -0.016933552147     -0.114376993578
 DF-MP2-F12/3*C(FIX)                   -0.079852762524     -0.013394739657     -0.093247502181
 DF-MP2-F12/3C(FIX)                    -0.080214212806     -0.013418559243     -0.093632772049

 DF-MP2-F12 correlation energies:
 --------------------------------
 Approx.                                    Singlet             Triplet             Ecorr            Total Energy
 DF-MP2                                -0.537795908568     -0.343137440881     -0.880933349449   -264.665985760349
 DF-MP2-F12/3*C(DX,FIX)                -0.635239349999     -0.360070993029     -0.995310343028   -264.780362753927
 DF-MP2-F12/3*C(FIX)                   -0.617648671093     -0.356532180538     -0.974180851631   -264.759233262530
 DF-MP2-F12/3C(FIX)                    -0.618010121375     -0.356556000124     -0.974566121498   -264.759618532398

 SCS-DF-MP2 energies (F_SING= 1.20000  F_TRIP= 0.62222  F_PARALLEL= 0.33333):
 ----------------------------------------------------------------------------
 SCS-DF-MP2                            -0.858862831275   -264.643915242174
 SCS-DF-MP2-F12/3*C(DX,FIX)            -0.986331393439   -264.771383804338
 SCS-DF-MP2-F12/3*C(FIX)               -0.963020650979   -264.748073061879
 SCS-DF-MP2-F12/3C(FIX)                -0.963469212393   -264.748521623292
 Symmetry transformation completed.

 Number of N-1 electron functions:              12
 Number of N-2 electron functions:              78
 Number of singly external CSFs:              2568
 Number of doubly external CSFs:           3298596
 Total number of CSFs:                     3301165

 Pair and operator lists are different

 Length of J-op  integral file:             474.22 MB
 Length of K-op  integral file:             572.29 MB
 Length of 3-ext integral record:             0.00 MB

 For full I/O caching in triples, increase memory by 50.81 Mwords to 151.09 Mwords.

 Integral transformation finished. Total CPU:  13.38 sec, npass=  1  Memory used:  87.46 MW

 Reference energy:                   -263.78505241

 Adding F12 terms to K(Cij), methodcc=6,  factor=1.0

 ITER.      SQ.NORM     CORR.ENERGY   TOTAL ENERGY   ENERGY CHANGE        DEN1      VAR(S)    VAR(P)  DIIS     TIME
   1      1.20217241    -0.86286281  -264.64791522     0.01808689     0.04675247  0.72D-02  0.56D-02  1  1    29.17
   2      1.21649703    -0.85862327  -264.64367569     0.00423954    -0.02017105  0.86D-04  0.59D-03  2  2    37.30
   3      1.22186098    -0.85871853  -264.64377094    -0.00009525    -0.00236192  0.13D-03  0.32D-04  3  3    45.26
   4      1.22466764    -0.85858991  -264.64364232     0.00012862    -0.00141264  0.76D-05  0.41D-05  4  4    53.15
   5      1.22570096    -0.85855194  -264.64360435     0.00003797    -0.00036740  0.56D-06  0.29D-06  5  5    61.25
   6      1.22586366    -0.85852500  -264.64357741     0.00002694    -0.00000807  0.40D-07  0.24D-07  6  6    69.33
   7      1.22589316    -0.85852256  -264.64357497     0.00000244    -0.00000622  0.27D-08  0.40D-08  6  4    77.39
   8      1.22589352    -0.85852206  -264.64357447     0.00000050     0.00000193  0.40D-09  0.28D-09  6  1    85.60
   9      1.22589411    -0.85852213  -264.64357454    -0.00000007     0.00000058  0.28D-10  0.22D-10  6  2    93.67

 Norm of t1 vector:      0.10606769      S-energy:     0.00000030      T1 diagnostic:  0.01530955
                                                                       D1 diagnostic:  0.04500836

 Adding energy correction from Wij-K(Fij), methodcc=6  factor=1.0
 
  CCSD correlation energy              -0.858522125292
  MP2-F12 correction (uncoupled)       -0.092474166797
  C*T doubles correction               -0.001477533814
  f12b correction                       0.015405102615


 Total CPU time for triples:    223.23 sec


 RESULTS
 =======

  Reference energy                   -263.769121026361
  F12 singles correction               -0.015931384539

 F12 singles corrections added to reference energy

  New reference energy               -263.785052410899

  F12a singlet correction              -0.080414944297
  F12a triplet correction              -0.013536756314
  F12a total correction                -0.093951700611

 F12a corrections for ansatz F12/3C(FIX) added to CCSD energy
 
  CCSD-F12a singlet pair energy        -0.641933872037
  CCSD-F12a triplet pair energy        -0.310540257561
  CCSD-F12a correlation energy         -0.952473825903

  Triples (T) contribution             -0.037659696857
  Total correlation energy             -0.990133522759

  CCSD-F12a total energy             -264.737526236802
  CCSD[T]-F12a energy                -264.777734755574
  CCSD-T-F12a energy                 -264.774246682477
 !CCSD(T)-F12a total energy          -264.775185933659

 F12b corrections for ansatz F12/3C(FIX) added to CCSD(T)-F12a energy

  CCSD-F12b singlet pair energy        -0.627751894606
  CCSD-F12b triplet pair energy        -0.309317132376
  CCSD-F12b correlation energy         -0.937068723287

  Triples (T) contribution             -0.037659696857
  Total correlation energy             -0.974728420144

  CCSD-F12b total energy             -264.722121134187
  CCSD[T]-F12b energy                -264.762329652959
  CCSD-T-F12b energy                 -264.758841579862
 !CCSD(T)-F12b total energy          -264.759780831044

 Timing summary (sec):

 STEP                 CPU(USER)    SYS     CPU(TOT)    WALL
 Transformation         13.49      1.14     14.63     15.05
 CCSD iterations        71.90      2.85     74.75     74.74
 Triples               223.23      2.47    225.70    225.61
 MP2-F12                 8.30      1.24      9.54      9.52
 F12b energy             4.89      0.04      4.93      4.93

 Program statistics:

 Available memory in ccsd:                99998934
 Min. memory needed in ccsd:               8644845
 Max. memory used in ccsd:                11598633
 Max. memory used in cckext:               8768967 (10 integral passes)



 **********************************************************************************************************************************
 DATASETS  * FILE   NREC   LENGTH (MB)   RECORD NAMES
              1      20      527.84       500      610      700      900      950      970     1000      129      960     1100   
                                          VAR    BASINP    GEOM    SYMINP    ZMAT    AOBASIS   BASIS     P2S    ABASIS      S 
                                         1400     1410     1200     1210     1080     1600     1650     1700      960(1)  1380   
                                           T        V       H0       H01     AOSYM     SMH    MOLCAS    OPER    ABASIS    JKOP   

              2       5        2.50       700     1000     2100     7360     7350   
                                         GEOM     BASIS     RHF    F12ABS    EF12   

 PROGRAMS   *        TOTAL   CCSD(T)        HF       INT
 CPU TIMES  *       335.47    322.06      7.68      5.65
 REAL TIME  *       344.64 SEC
 DISK USED  *         2.23 GB      
 SF USED    *         1.91 GB      
 GA USED    *         2.40 MB       (max)       0.00 MB       (current)
 **********************************************************************************************************************************

     CCSD(T)-F12        HF-SCF  
   -264.75978083   -263.76912103
 **********************************************************************************************************************************
 Variable memory released
