
 Primary working directories    : /scratch/kee
 Secondary working directories  : /scratch/kee
 Wavefunction directory         : /home/kee/wfu/
 Main file repository           : /scratch/kee/

 ARCHNAME  : Linux/x86_64
 FC        : /opt/intel/composer_xe_2015.0.090/bin/intel64/ifort
 FCVERSION : 15.0.0
 BLASLIB   : -L/opt/intel/mkl/lib/intel64 -lmkl_intel_ilp64 -lmkl_sequential -lmkl_core
 id        : emory

 Nodes     nprocs
 node17       3
 Number of processes for MPI-2 version of Molpro:   nprocs(total)=    4   nprocs(compute)=    3   nprocs(helper)=    1
 ga_uses_ma=false, calling ma_init with nominal heap.
 GA-space will be limited to   8.0 MW (determined by -G option)

 Using customized tuning parameters: mindgm=7; mindgv=32; mindgc=1; mindgr=1; noblas=0; mincuda=1000; minvec=7
 default implementation of scratch files=sf  

 ***,co2h2o
 memory,100,m
 basis avtz
 geomtype = xyz
 geometry = {
 6
       0.00000777
 O    10.97257393   -1.10347931    0.00000000
 O    11.76744404    1.08065151   -0.00000000
 O     1.44356282    0.00000000    0.00000000
 H     0.69556774    0.58340495    0.10287003
 H     2.19598802    0.58686026    0.10347930
 C    11.34356282    0.00000000    0.00000000
 }
 hf
 ccsd(t)-f12
 ---

 Variables initialized (665), CPU time= 0.01 sec
 Commands  initialized (462), CPU time= 0.01 sec, 486 directives.
 Default parameters read. Elapsed time= 0.05 sec

 Checking input...
 Passed
1


                                         ***  PROGRAM SYSTEM MOLPRO  ***
                         Copyright, University College Cardiff Consultants Limited, 2008

                                    Version 2010.1 linked 9 Dec 2014 15:06:28 


 **********************************************************************************************************************************
 LABEL *   co2h2o                                                                        
 Linux-2.6.32-504.el6.x86_64/node17(x86_64) 64 bit mpp version                           DATE: 18-Jan-17          TIME: 21:37:44  
 **********************************************************************************************************************************

 Patch level:      19
 **********************************************************************************************************************************

 Variable memory set to  100000000 words,  buffer space   230000 words

 SETTING BASIS          =    AVTZ
 SETTING GEOMTYPE       =    XYZ

Geometry recognized as XYZ



 Recomputing integrals since basis changed


 Using spherical harmonics

 Library entry O      S aug-cc-pVTZ          selected for orbital group  1
 Library entry O      P aug-cc-pVTZ          selected for orbital group  1
 Library entry O      D aug-cc-pVTZ          selected for orbital group  1
 Library entry O      F aug-cc-pVTZ          selected for orbital group  1
 Library entry H      S aug-cc-pVTZ          selected for orbital group  2
 Library entry H      P aug-cc-pVTZ          selected for orbital group  2
 Library entry H      D aug-cc-pVTZ          selected for orbital group  2
 Library entry C      S aug-cc-pVTZ          selected for orbital group  3
 Library entry C      P aug-cc-pVTZ          selected for orbital group  3
 Library entry C      D aug-cc-pVTZ          selected for orbital group  3
 Library entry C      F aug-cc-pVTZ          selected for orbital group  3

1PROGRAM * SEWARD (Integral evaluation for generally contracted gaussian basis sets)     Author: Roland Lindh, 1990

 Geometry written to block  1 of record 700


 Point group  C1  



 ATOMIC COORDINATES

 NR  ATOM    CHARGE       X              Y              Z

   1  O       8.00   20.735159684   -2.085273688    0.000000000
   2  O       8.00   22.237246502    2.042135397    0.000000000
   3  O       8.00    2.727938383    0.000000000    0.000000000
   4  H       1.00    1.314432534    1.102475579    0.194396184
   5  H       1.00    4.149815946    1.109005169    0.195547537
   6  C       6.00   21.436227084    0.000000000    0.000000000

 Bond lengths in Bohr (Angstrom)

 1-6  2.199968602  2-6  2.193615529  3-4  1.803119814  3-5  1.813799081
     (1.164173245)     (1.160811343)     (0.954169911)     (0.959821135)

 Bond angles

  1-6-2  177.16520951   4-3-5  103.24222917

 NUCLEAR CHARGE:                   32
 NUMBER OF PRIMITIVE AOS:         322
 NUMBER OF SYMMETRY AOS:          282
 NUMBER OF CONTRACTIONS:          230   ( 230A   )
 NUMBER OF CORE ORBITALS:           4   (   4A   )
 NUMBER OF VALENCE ORBITALS:       18   (  18A   )


 NUCLEAR REPULSION ENERGY   79.17811584


 Eigenvalues of metric

         1 0.350E-03 0.381E-03 0.387E-03 0.424E-03 0.903E-03 0.923E-03 0.163E-02 0.176E-02


 Contracted 2-electron integrals neglected if value below      1.0D-11
 AO integral compression algorithm  1   Integral accuracy      1.0D-11

     389.546 MB (compressed) written to integral file ( 18.5%)

     Node minimum: 123.208 MB, node maximum: 138.412 MB


 NUMBER OF SORTED TWO-ELECTRON INTEGRALS:  117629820.     BUFFER LENGTH:  32768
 NUMBER OF SEGMENTS:   8  SEGMENT LENGTH:   15997437      RECORD LENGTH: 524288

 Memory used in sort:      16.55 MW

 SORT1 READ   263844439. AND WROTE    26262795. INTEGRALS IN     80 RECORDS. CPU TIME:     2.18 SEC, REAL TIME:     2.49 SEC
 SORT2 READ    78572520. AND WROTE   352862895. INTEGRALS IN   1410 RECORDS. CPU TIME:     1.14 SEC, REAL TIME:     1.41 SEC

 Node minimum:   117612110.  Node maximum:   117629820. integrals

 OPERATOR DM      FOR CENTER  0  COORDINATES:    0.000000    0.000000    0.000000


 **********************************************************************************************************************************
 DATASETS  * FILE   NREC   LENGTH (MB)   RECORD NAMES
              1      18        4.62       500      610      700      900      950      970     1000      129      960     1100   
                                          VAR    BASINP    GEOM    SYMINP    ZMAT    AOBASIS   BASIS     P2S    ABASIS      S 
                                         1400     1410     1200     1210     1080     1600     1650     1700   
                                           T        V       H0       H01     AOSYM     SMH    MOLCAS    OPER   

 PROGRAMS   *        TOTAL       INT
 CPU TIMES  *         5.99      5.89
 REAL TIME  *         6.73 SEC
 DISK USED  *         1.32 GB      
 GA USED    *         0.00 MB       (max)       0.00 MB       (current)
 **********************************************************************************************************************************

1PROGRAM * RHF-SCF (CLOSED SHELL)       Authors: W. Meyer, H.-J. Werner


 NUMBER OF ELECTRONS:      16+   16-    SPACE SYMMETRY=1    SPIN SYMMETRY=Singlet 
 CONVERGENCE THRESHOLDS:    1.00E-05 (Density)    1.00E-07 (Energy)
 MAX. NUMBER OF ITERATIONS:       60
 INTERPOLATION TYPE:            DIIS
 INTERPOLATION STEPS:              2 (START)      1 (STEP)
 LEVEL SHIFTS:                  0.00 (CLOSED)  0.00 (OPEN) 



 Orbital guess generated from atomic densities. Full valence occupancy:   22

 Molecular orbital dump at record        2100.2

 ITERATION    DDIFF          GRAD             ENERGY        2-EL.EN.            DIPOLE MOMENTS         DIIS
    1      0.000D+00      0.000D+00      -263.65946122    353.727154   -0.06882    1.17033    0.19888    0
    2      0.000D+00      0.469D-02      -263.72498198    349.215211   -0.01135    0.67139    0.11710    1
    3      0.752D-02      0.319D-02      -263.76856050    351.765986   -0.03315    0.79791    0.13663    2
    4      0.310D-02      0.300D-03      -263.76905721    351.552722   -0.03243    0.80014    0.13750    3
    5      0.356D-03      0.875D-04      -263.76911579    351.555998   -0.03210    0.79614    0.13652    4
    6      0.133D-03      0.354D-04      -263.76912307    351.570331   -0.03225    0.79602    0.13667    5
    7      0.443D-04      0.874D-05      -263.76912382    351.562188   -0.03212    0.79606    0.13660    6
    8      0.145D-04      0.212D-05      -263.76912387    351.563278   -0.03224    0.79575    0.13660    7
    9      0.400D-05      0.130D-05      -263.76912387    351.563295   -0.03214    0.79601    0.13660    0

 Final occupancy:  16

 !RHF STATE 1.1 Energy               -263.769123869186
 Nuclear energy                        79.17811584
 One-electron energy                 -518.72888728
 Two-electron energy                  175.78164757
 Virial quotient                       -1.00179912
 !RHF STATE 1.1 Dipole moment          -0.03213898     0.79601133     0.13659590
 Dipole moment /Debye                  -0.08168380     2.02312647     0.34716941

 Orbital energies:

         1.1          2.1          3.1          4.1          5.1          6.1          7.1          8.1          9.1         10.1
    -20.654350   -20.653164   -20.567998   -11.462621    -1.531280    -1.477969    -1.354964    -0.801613    -0.743703    -0.715790

        11.1         12.1         13.1         14.1         15.1         16.1         17.1         18.1
     -0.715296    -0.715287    -0.587781    -0.544991    -0.544940    -0.511049     0.028215     0.041218


 **********************************************************************************************************************************
 DATASETS  * FILE   NREC   LENGTH (MB)   RECORD NAMES
              1      18        4.62       500      610      700      900      950      970     1000      129      960     1100   
                                          VAR    BASINP    GEOM    SYMINP    ZMAT    AOBASIS   BASIS     P2S    ABASIS      S 
                                         1400     1410     1200     1210     1080     1600     1650     1700   
                                           T        V       H0       H01     AOSYM     SMH    MOLCAS    OPER   

              2       3        1.44       700     1000     2100   
                                         GEOM     BASIS     RHF  

 PROGRAMS   *        TOTAL        HF       INT
 CPU TIMES  *        13.71      7.72      5.89
 REAL TIME  *        14.87 SEC
 DISK USED  *         1.35 GB      
 SF USED    *         0.21 MB      
 GA USED    *         0.00 MB       (max)       0.00 MB       (current)
 **********************************************************************************************************************************


1PROGRAM * CCSD (Closed-shell coupled cluster)     Authors: C. Hampel, H.-J. Werner, 1991, M. Deegan, P.J. Knowles, 1992

                                  CCSD-F12 implementation by  H.-J. Werner, 2007

                   Density fitting integral evaluation by F.R. Manby, 2003,2007, G. Knizia, 2010

 Basis set CC-PVTZ/JKFIT generated.      Number of basis functions:   376 
 Basis set AUG-CC-PVTZ/MP2FIT generated. Number of basis functions:   516 

 Convergence thresholds:  THRVAR = 1.00D-08  THRDEN = 1.00D-06

 CCSD(T)     terms to be evaluated (factor= 1.000)


 Number of core orbitals:           4 (   4 )
 Number of closed-shell orbitals:  12 (  12 )
 Number of external orbitals:     214 ( 214 )

 Molecular orbitals read from record     2100.2  Type=RHF/CANONICAL (state 1.1)

 MP2-F12 correlation treatment (H.-J. Werner, 2006)
 --------------------------------------------------

 Using MP2-F12 with ansatz 3C(FIX)

 Using projected zeroth-order Hamiltonian (+Z)

 FOCKRIB=T FOCKRIC=T FOCKRIP=T CABSP=T CABSA=T CABSK=T CABSF=T GBC=F EBC=F DMAT=T NOFIK=T NOPAO=1 SOLVE=-1  USEPAO=0
 EXCH_A= T EXCH_B= F EXCH_C= F EXCH_P= F
 
 Geminal basis:    OPTFULL  GEM_TYPE=SLATER  BETA=1.0  NGEM=6

 Optimizing Gaussian exponents for each gem_beta

 Geminal optimization for beta= 1.0000
 Weight function:   m=0, omega= 1.4646

 Augmented Hessian optimization of geminal fit. Trust ratio= 0.40000
 Convergence reached after   2 iterations. Final gradient= 8.24D-16, Step= 4.32D-06, Delta= 1.28D-09
 
 Alpha:                 0.19532     0.81920     2.85917     9.50073    35.69989   197.79328
 Coeff:                 0.27070     0.30552     0.18297     0.10986     0.06810     0.04224
 

 All pairs explicitly correlated. Number of r12-pairs:           78
 
 AO(A)-basis ORBITAL           loaded. Number of functions:     230
 RI(R)-basis CC-PVTZ/JKFIT     loaded. Number of functions:     376
 DF-basis CC-PVTZ/JKFIT        loaded. Number of functions:     376

 Screening thresholds:   THRAO=  1.00D-10  THRMO=  1.00D-09  THRPROD=  1.00D-09
                         THRSW=  1.00D-05  THROV=  1.00D-12  THRF12=   1.00D-08

 CPU time for Fock operators                      0.95 sec
 
 Construction of ABS:
 Smallest eigenvalue of S          2.58E-04  (threshold= 1.00E-08)
 Ratio eigmin/eigmax               1.84E-06  (threshold= 1.00E-09)
 Smallest eigenvalue of S kept     2.58E-04  (threshold= 2.58E-04, 0 functions deleted, 376 kept)
 
 Construction of CABS:
 Smallest eigenvalue of S          2.30E-08  (threshold= 1.00E-08)
 Ratio eigmin/eigmax               2.30E-08  (threshold= 1.00E-09)
 Smallest eigenvalue of S kept     2.30E-08  (threshold= 2.30E-08, 0 functions deleted, 376 kept)
 
 CPU time for CABS singles                        0.16 sec

 CABS-singles contribution of  -0.01593136 patched into reference energy.
 New reference energy        -263.78505523
 
 AO(A)-basis ORBITAL           loaded. Number of functions:     230
 RI(R)-basis CC-PVTZ/JKFIT     loaded. Number of functions:     376
 DF-basis AUG-CC-PVTZ/MP2FIT   loaded. Number of functions:     516

 Screening thresholds:   THRAO=  1.00D-10  THRMO=  1.00D-09  THRPROD=  1.00D-09
                         THRSW=  1.00D-05  THROV=  1.00D-12  THRF12=   1.00D-08

 CPU time for 3-index integral evaluation         1.71 sec
 CPU time for first  half transformation          0.25 sec ( 7667.9 MFLOP/sec)
 CPU time for second half transformation          0.02 sec ( 4529.8 MFLOP/sec)
 CPU time for sorting                             0.17 sec
 CPU time for fitting                             0.06 sec (23217.5 MFLOP/sec)
 CPU time for tilde quantities                    0.04 sec (46222.0 MFLOP/sec)
 CPU time for assembly                            0.81 sec (29142.8 MFLOP/sec)
 CPU time for tranop_f12                          0.86 sec (35468.4 MFLOP/sec)
 CPU time for f12 integrals (total)               5.98 sec
 F12-matrices built in  3 passes.
 F12-matrices built in  3 passes.
 F12-matrices built in  3 passes.
 F12-matrices built in  3 passes.
 FC-matrix built in  3 passes.
 CPU time for f12 matrices (total)                0.53 sec

 Diagonal F12 approximation with fixed coefficients:  TSING= 0.500,  TTRIP= 0.250 (scaled by -1/beta)

 DF-MP2-F12 energy corrections:
 ------------------------------
 Approx.                                    Singlet             Triplet             Total
 DF-MP2-F12/3*C(DX,FIX)                -0.097443613167     -0.016933587739     -0.114377200906
 DF-MP2-F12/3*C(FIX)                   -0.079852885714     -0.013394763378     -0.093247649093
 DF-MP2-F12/3C(FIX)                    -0.080214344274     -0.013418580246     -0.093632924520

 DF-MP2-F12 correlation energies:
 --------------------------------
 Approx.                                    Singlet             Triplet             Ecorr            Total Energy
 DF-MP2                                -0.537795289328     -0.343136871059     -0.880932160388   -264.665987386746
 DF-MP2-F12/3*C(DX,FIX)                -0.635238902495     -0.360070458798     -0.995309361293   -264.780364587652
 DF-MP2-F12/3*C(FIX)                   -0.617648175043     -0.356531634437     -0.974179809480   -264.759235035839
 DF-MP2-F12/3C(FIX)                    -0.618009633603     -0.356555451306     -0.974565084908   -264.759620311266

 SCS-DF-MP2 energies (F_SING= 1.20000  F_TRIP= 0.62222  F_PARALLEL= 0.33333):
 ----------------------------------------------------------------------------
 SCS-DF-MP2                            -0.858861733631   -264.643916959989
 SCS-DF-MP2-F12/3*C(DX,FIX)            -0.986330524024   -264.771385750383
 SCS-DF-MP2-F12/3*C(FIX)               -0.963019715924   -264.748074942282
 SCS-DF-MP2-F12/3C(FIX)                -0.963468285580   -264.748523511938
 Symmetry transformation completed.

 Number of N-1 electron functions:              12
 Number of N-2 electron functions:              78
 Number of singly external CSFs:              2568
 Number of doubly external CSFs:           3298596
 Total number of CSFs:                     3301165

 Pair and operator lists are different

 Length of J-op  integral file:             474.22 MB
 Length of K-op  integral file:             572.29 MB
 Length of 3-ext integral record:             0.00 MB

 For full I/O caching in triples, increase memory by 50.81 Mwords to 151.09 Mwords.

 Integral transformation finished. Total CPU:  13.40 sec, npass=  1  Memory used:  87.46 MW

 Reference energy:                   -263.78505523

 Adding F12 terms to K(Cij), methodcc=6,  factor=1.0

 ITER.      SQ.NORM     CORR.ENERGY   TOTAL ENERGY   ENERGY CHANGE        DEN1      VAR(S)    VAR(P)  DIIS     TIME
   1      1.20217197    -0.86286181  -264.64791704     0.01808670     0.04675210  0.72D-02  0.56D-02  1  1    29.14
   2      1.21649650    -0.85862233  -264.64367755     0.00423949    -0.02017093  0.86D-04  0.59D-03  2  2    37.87
   3      1.22186044    -0.85871758  -264.64377281    -0.00009526    -0.00236193  0.13D-03  0.32D-04  3  3    46.35
   4      1.22466709    -0.85858897  -264.64364419     0.00012862    -0.00141263  0.76D-05  0.41D-05  4  4    54.96
   5      1.22570040    -0.85855100  -264.64360622     0.00003797    -0.00036740  0.56D-06  0.29D-06  5  5    63.48
   6      1.22586309    -0.85852406  -264.64357929     0.00002694    -0.00000807  0.40D-07  0.24D-07  6  6    72.05
   7      1.22589260    -0.85852162  -264.64357684     0.00000244    -0.00000622  0.27D-08  0.40D-08  6  4    80.64
   8      1.22589295    -0.85852112  -264.64357634     0.00000050     0.00000193  0.40D-09  0.28D-09  6  1    89.16
   9      1.22589354    -0.85852118  -264.64357641    -0.00000007     0.00000058  0.28D-10  0.22D-10  6  2    97.95

 Norm of t1 vector:      0.10606752      S-energy:     0.00000029      T1 diagnostic:  0.01530953
                                                                       D1 diagnostic:  0.04500849

 Adding energy correction from Wij-K(Fij), methodcc=6  factor=1.0
 
  CCSD correlation energy              -0.858521184407
  MP2-F12 correction (uncoupled)       -0.092474321398
  C*T doubles correction               -0.001477532392
  f12b correction                       0.015405109766


 Total CPU time for triples:    212.05 sec


 RESULTS
 =======

  Reference energy                   -263.769123869187
  F12 singles correction               -0.015931357172

 F12 singles corrections added to reference energy

  New reference energy               -263.785055226358

  F12a singlet correction              -0.080415073446
  F12a triplet correction              -0.013536780344
  F12a total correction                -0.093951853790

 F12a corrections for ansatz F12/3C(FIX) added to CCSD energy
 
  CCSD-F12a singlet pair energy        -0.641933433992
  CCSD-F12a triplet pair energy        -0.310539898584
  CCSD-F12a correlation energy         -0.952473038197

  Triples (T) contribution             -0.037659532924
  Total correlation energy             -0.990132571121

  CCSD-F12a total energy             -264.737528264555
  CCSD[T]-F12a energy                -264.777736601091
  CCSD-T-F12a energy                 -264.774248554075
 !CCSD(T)-F12a total energy          -264.775187797480

 F12b corrections for ansatz F12/3C(FIX) added to CCSD(T)-F12a energy

  CCSD-F12b singlet pair energy        -0.627751449411
  CCSD-F12b triplet pair energy        -0.309316773400
  CCSD-F12b correlation energy         -0.937067928431

  Triples (T) contribution             -0.037659532924
  Total correlation energy             -0.974727461356

  CCSD-F12b total energy             -264.722123154789
  CCSD[T]-F12b energy                -264.762331491325
  CCSD-T-F12b energy                 -264.758843444309
 !CCSD(T)-F12b total energy          -264.759782687714

 Timing summary (sec):

 STEP                 CPU(USER)    SYS     CPU(TOT)    WALL
 Transformation         13.52      1.13     14.65     14.66
 CCSD iterations        76.29      3.62     79.91     81.64
 Triples               212.05      2.20    214.25    214.14
 MP2-F12                 8.18      1.21      9.39      9.39
 F12b energy             5.02      0.06      5.08      5.08

 Program statistics:

 Available memory in ccsd:                99998934
 Min. memory needed in ccsd:               8644845
 Max. memory used in ccsd:                11598633
 Max. memory used in cckext:               8768967 (10 integral passes)



 **********************************************************************************************************************************
 DATASETS  * FILE   NREC   LENGTH (MB)   RECORD NAMES
              1      20      527.84       500      610      700      900      950      970     1000      129      960     1100   
                                          VAR    BASINP    GEOM    SYMINP    ZMAT    AOBASIS   BASIS     P2S    ABASIS      S 
                                         1400     1410     1200     1210     1080     1600     1650     1700      960(1)  1380   
                                           T        V       H0       H01     AOSYM     SMH    MOLCAS    OPER    ABASIS    JKOP   

              2       5        2.50       700     1000     2100     7360     7350   
                                         GEOM     BASIS     RHF    F12ABS    EF12   

 PROGRAMS   *        TOTAL   CCSD(T)        HF       INT
 CPU TIMES  *       329.03    315.31      7.72      5.89
 REAL TIME  *       340.20 SEC
 DISK USED  *         2.22 GB      
 SF USED    *         1.91 GB      
 GA USED    *         2.40 MB       (max)       0.00 MB       (current)
 **********************************************************************************************************************************

     CCSD(T)-F12        HF-SCF  
   -264.75978269   -263.76912387
 **********************************************************************************************************************************
 Variable memory released
