
 Primary working directories    : /scratch/kee
 Secondary working directories  : /scratch/kee
 Wavefunction directory         : /home/kee/wfu/
 Main file repository           : /scratch/kee/

 ARCHNAME  : Linux/x86_64
 FC        : /opt/intel/composer_xe_2015.0.090/bin/intel64/ifort
 FCVERSION : 15.0.0
 BLASLIB   : -L/opt/intel/mkl/lib/intel64 -lmkl_intel_ilp64 -lmkl_sequential -lmkl_core
 id        : emory

 Nodes     nprocs
 node23       3
 Number of processes for MPI-2 version of Molpro:   nprocs(total)=    4   nprocs(compute)=    3   nprocs(helper)=    1
 ga_uses_ma=false, calling ma_init with nominal heap.
 GA-space will be limited to   8.0 MW (determined by -G option)

 Using customized tuning parameters: mindgm=7; mindgv=32; mindgc=1; mindgr=1; noblas=0; mincuda=1000; minvec=7
 default implementation of scratch files=sf  

 ***,co2h2o
 memory,100,m
 basis avtz
 geomtype = xyz
 geometry = {
 3
       0.00000000
 O    18.47522152   -0.07613821    0.00000000
 H    18.86431652    0.36513579    0.75746400
 H    18.86431652    0.36513579   -0.75746400
 }
 hf
 ccsd(t)-f12
 ---

 Variables initialized (665), CPU time= 0.01 sec
 Commands  initialized (462), CPU time= 0.01 sec, 486 directives.
 Default parameters read. Elapsed time= 0.04 sec

 Checking input...
 Passed
1


                                         ***  PROGRAM SYSTEM MOLPRO  ***
                         Copyright, University College Cardiff Consultants Limited, 2008

                                    Version 2010.1 linked 9 Dec 2014 15:06:28 


 **********************************************************************************************************************************
 LABEL *   co2h2o                                                                        
 Linux-2.6.32-504.el6.x86_64/node23(x86_64) 64 bit mpp version                           DATE: 14-Dec-16          TIME: 23:40:52  
 **********************************************************************************************************************************

 Patch level:      19
 **********************************************************************************************************************************

 Variable memory set to  100000000 words,  buffer space   230000 words

 SETTING BASIS          =    AVTZ
 SETTING GEOMTYPE       =    XYZ

Geometry recognized as XYZ



 Recomputing integrals since basis changed


 Using spherical harmonics

 Library entry O      S aug-cc-pVTZ          selected for orbital group  1
 Library entry O      P aug-cc-pVTZ          selected for orbital group  1
 Library entry O      D aug-cc-pVTZ          selected for orbital group  1
 Library entry O      F aug-cc-pVTZ          selected for orbital group  1
 Library entry H      S aug-cc-pVTZ          selected for orbital group  2
 Library entry H      P aug-cc-pVTZ          selected for orbital group  2
 Library entry H      D aug-cc-pVTZ          selected for orbital group  2

1PROGRAM * SEWARD (Integral evaluation for generally contracted gaussian basis sets)     Author: Roland Lindh, 1990

 Geometry written to block  1 of record 700


 Point group  Cs  



 ATOMIC COORDINATES

 NR  ATOM    CHARGE       X              Y              Z

   1  O       8.00   34.913108890   -0.143880365    0.000000000
   2  H       1.00   35.648391879    0.690006644    1.431399514
   3  H       1.00   35.648391879    0.690006644   -1.431399514

 Bond lengths in Bohr (Angstrom)

 1-2  1.812432947  1-3  1.812432947
     (0.959098208)     (0.959098208)

 Bond angles

  2-1-3  104.32746287

 NUCLEAR CHARGE:                   10
 NUMBER OF PRIMITIVE AOS:         121
 NUMBER OF SYMMETRY AOS:          108
 NUMBER OF CONTRACTIONS:           92   (  53A'  +  39A"  )
 NUMBER OF CORE ORBITALS:           1   (   1A'  +   0A"  )
 NUMBER OF VALENCE ORBITALS:        6   (   4A'  +   2A"  )


 NUCLEAR REPULSION ENERGY    9.17722128


 Eigenvalues of metric

         1 0.386E-03 0.186E-02 0.321E-02 0.559E-02 0.597E-02 0.764E-02 0.170E-01 0.365E-01
         2 0.395E-03 0.167E-02 0.509E-02 0.622E-02 0.100E-01 0.125E-01 0.157E-01 0.390E-01


 Contracted 2-electron integrals neglected if value below      1.0D-11
 AO integral compression algorithm  1   Integral accuracy      1.0D-11

     29.884 MB (compressed) written to integral file ( 51.8%)

     Node minimum: 8.913 MB, node maximum: 11.010 MB


 NUMBER OF SORTED TWO-ELECTRON INTEGRALS:    1559979.     BUFFER LENGTH:  32768
 NUMBER OF SEGMENTS:   1  SEGMENT LENGTH:    1559979      RECORD LENGTH: 524288

 Memory used in sort:       2.12 MW

 SORT1 READ     7237138. AND WROTE     1396436. INTEGRALS IN      4 RECORDS. CPU TIME:     0.10 SEC, REAL TIME:     0.11 SEC
 SORT2 READ     4201639. AND WROTE     4677726. INTEGRALS IN    114 RECORDS. CPU TIME:     0.03 SEC, REAL TIME:     0.05 SEC

 Node minimum:     1558505.  Node maximum:     1559979. integrals

 OPERATOR DM      FOR CENTER  0  COORDINATES:    0.000000    0.000000    0.000000


 **********************************************************************************************************************************
 DATASETS  * FILE   NREC   LENGTH (MB)   RECORD NAMES
              1      18        2.76       500      610      700      900      950      970     1000      129      960     1100   
                                          VAR    BASINP    GEOM    SYMINP    ZMAT    AOBASIS   BASIS     P2S    ABASIS      S 
                                         1400     1410     1200     1210     1080     1600     1650     1700   
                                           T        V       H0       H01     AOSYM     SMH    MOLCAS    OPER   

 PROGRAMS   *        TOTAL       INT
 CPU TIMES  *         0.34      0.26
 REAL TIME  *         0.43 SEC
 DISK USED  *        78.83 MB      
 GA USED    *         0.00 MB       (max)       0.00 MB       (current)
 **********************************************************************************************************************************

1PROGRAM * RHF-SCF (CLOSED SHELL)       Authors: W. Meyer, H.-J. Werner


 NUMBER OF ELECTRONS:       5+    5-
 CONVERGENCE THRESHOLDS:    1.00E-05 (Density)    1.00E-07 (Energy)
 MAX. NUMBER OF ITERATIONS:       60
 INTERPOLATION TYPE:            DIIS
 INTERPOLATION STEPS:              2 (START)      1 (STEP)
 LEVEL SHIFTS:                  0.00 (CLOSED)  0.00 (OPEN) 



 Orbital guess generated from atomic densities. Full valence occupancy:    5   2

 Molecular orbital dump at record        2100.2

 Initial alpha occupancy:   4   1
 Initial beta  occupancy:   4   1
 Wave function symmetry:    1

 ITERATION    DDIFF          GRAD             ENERGY        2-EL.EN.            DIPOLE MOMENTS         DIIS
    1      0.000D+00      0.000D+00       -76.02263907     77.624452    0.75159    0.85238    0.00000    0
    2      0.000D+00      0.915D-02       -76.04941425     74.058437    0.44428    0.50386    0.00000    1
    3      0.155D-01      0.571D-02       -76.06027082     75.622763    0.52035    0.59013    0.00000    2
    4      0.546D-02      0.530D-03       -76.06045214     75.534156    0.51807    0.58754    0.00000    3
    5      0.703D-03      0.143D-03       -76.06046982     75.547761    0.51724    0.58661    0.00000    4
    6      0.213D-03      0.267D-04       -76.06047082     75.547038    0.51714    0.58649    0.00000    5
    7      0.501D-04      0.512D-05       -76.06047087     75.547153    0.51708    0.58643    0.00000    6
    8      0.130D-04      0.976D-06       -76.06047087     75.547111    0.51706    0.58640    0.00000    5
    9      0.206D-05      0.283D-06       -76.06047087     75.547149    0.51706    0.58640    0.00000    0

 Final occupancy:   4   1

 !RHF STATE 1.1 Energy                -76.060470867816
 Nuclear energy                         9.17722128
 One-electron energy                 -123.01126673
 Two-electron energy                   37.77357459
 Virial quotient                       -1.00143238
 !RHF STATE 1.1 Dipole moment           0.51706226     0.58640212     0.00000000
 Dipole moment /Debye                   1.31415510     1.49038790     0.00000000

 Orbital energies:

         1.1          2.1          3.1          4.1          5.1          6.1
    -20.567601    -1.352776    -0.584956    -0.510263     0.029409     0.135928

         1.2          2.2          3.2
     -0.716463     0.047689     0.183023


 **********************************************************************************************************************************
 DATASETS  * FILE   NREC   LENGTH (MB)   RECORD NAMES
              1      18        2.76       500      610      700      900      950      970     1000      129      960     1100   
                                          VAR    BASINP    GEOM    SYMINP    ZMAT    AOBASIS   BASIS     P2S    ABASIS      S 
                                         1400     1410     1200     1210     1080     1600     1650     1700   
                                           T        V       H0       H01     AOSYM     SMH    MOLCAS    OPER   

              2       3        0.39       700     1000     2100   
                                         GEOM     BASIS     RHF  

 PROGRAMS   *        TOTAL        HF       INT
 CPU TIMES  *         0.44      0.10      0.26
 REAL TIME  *         0.53 SEC
 DISK USED  *        90.45 MB      
 SF USED    *         0.02 MB      
 GA USED    *         0.00 MB       (max)       0.00 MB       (current)
 **********************************************************************************************************************************


1PROGRAM * CCSD (Closed-shell coupled cluster)     Authors: C. Hampel, H.-J. Werner, 1991, M. Deegan, P.J. Knowles, 1992

                                  CCSD-F12 implementation by  H.-J. Werner, 2007

                   Density fitting integral evaluation by F.R. Manby, 2003,2007, G. Knizia, 2010

 Basis set CC-PVTZ/JKFIT generated.      Number of basis functions:   139 
 Basis set AUG-CC-PVTZ/MP2FIT generated. Number of basis functions:   198 

 Convergence thresholds:  THRVAR = 1.00D-08  THRDEN = 1.00D-06

 CCSD(T)     terms to be evaluated (factor= 1.000)


 Number of core orbitals:           1 (   1   0 )
 Number of closed-shell orbitals:   4 (   3   1 )
 Number of external orbitals:      87 (  49  38 )

 Molecular orbitals read from record     2100.2  Type=RHF/CANONICAL (state 1.1)

 MP2-F12 correlation treatment (H.-J. Werner, 2006)
 --------------------------------------------------

 Using MP2-F12 with ansatz 3C(FIX)

 Using projected zeroth-order Hamiltonian (+Z)

 FOCKRIB=T FOCKRIC=T FOCKRIP=T CABSP=T CABSA=T CABSK=T CABSF=T GBC=F EBC=F DMAT=T NOFIK=T NOPAO=1 SOLVE=-1  USEPAO=0
 EXCH_A= T EXCH_B= F EXCH_C= F EXCH_P= F
 
 Geminal basis:    OPTFULL  GEM_TYPE=SLATER  BETA=1.0  NGEM=6

 Optimizing Gaussian exponents for each gem_beta

 Geminal optimization for beta= 1.0000
 Weight function:   m=0, omega= 1.4646

 Augmented Hessian optimization of geminal fit. Trust ratio= 0.40000
 Convergence reached after   2 iterations. Final gradient= 8.24D-16, Step= 4.32D-06, Delta= 1.28D-09
 
 Alpha:                 0.19532     0.81920     2.85917     9.50073    35.69989   197.79328
 Coeff:                 0.27070     0.30552     0.18297     0.10986     0.06810     0.04224
 

 Symmetry turned off. Reference energy:        -76.060470867816

 All pairs explicitly correlated. Number of r12-pairs:           10
 
 AO(A)-basis ORBITAL           loaded. Number of functions:      92
 RI(R)-basis CC-PVTZ/JKFIT     loaded. Number of functions:     139
 DF-basis CC-PVTZ/JKFIT        loaded. Number of functions:     139

 Screening thresholds:   THRAO=  1.00D-10  THRMO=  1.00D-09  THRPROD=  1.00D-09
                         THRSW=  1.00D-05  THROV=  1.00D-12  THRF12=   1.00D-08

 CPU time for Fock operators                      0.07 sec
 
 Construction of ABS:
 Smallest eigenvalue of S          3.60E-04  (threshold= 1.00E-08)
 Ratio eigmin/eigmax               3.31E-06  (threshold= 1.00E-09)
 Smallest eigenvalue of S kept     3.60E-04  (threshold= 3.60E-04, 0 functions deleted, 139 kept)
 
 Construction of CABS:
 Smallest eigenvalue of S          4.96E-08  (threshold= 1.00E-08)
 Ratio eigmin/eigmax               4.96E-08  (threshold= 1.00E-09)
 Smallest eigenvalue of S kept     4.96E-08  (threshold= 4.96E-08, 0 functions deleted, 139 kept)
 
 CPU time for CABS singles                        0.01 sec

 CABS-singles contribution of  -0.00457430 patched into reference energy.
 New reference energy         -76.06504517
 
 AO(A)-basis ORBITAL           loaded. Number of functions:      92
 RI(R)-basis CC-PVTZ/JKFIT     loaded. Number of functions:     139
 DF-basis AUG-CC-PVTZ/MP2FIT   loaded. Number of functions:     198

 Screening thresholds:   THRAO=  1.00D-10  THRMO=  1.00D-09  THRPROD=  1.00D-09
                         THRSW=  1.00D-05  THROV=  1.00D-12  THRF12=   1.00D-08

 CPU time for 3-index integral evaluation         0.19 sec
 CPU time for first  half transformation          0.01 sec ( 6331.7 MFLOP/sec)
 CPU time for assembly                            0.01 sec (16207.5 MFLOP/sec)
 CPU time for tranop_f12                          0.01 sec (17920.4 MFLOP/sec)
 CPU time for f12 integrals (total)               0.34 sec
 F12-matrices built in  3 passes.
 F12-matrices built in  3 passes.
 F12-matrices built in  3 passes.
 F12-matrices built in  3 passes.
 FC-matrix built in  3 passes.
 CPU time for f12 matrices (total)                0.01 sec

 Diagonal F12 approximation with fixed coefficients:  TSING= 0.500,  TTRIP= 0.250 (scaled by -1/beta)

 DF-MP2-F12 energy corrections:
 ------------------------------
 Approx.                                    Singlet             Triplet             Total
 DF-MP2-F12/3*C(DX,FIX)                -0.029749622001     -0.004891413989     -0.034641035989
 DF-MP2-F12/3*C(FIX)                   -0.024456458034     -0.003800641142     -0.028257099176
 DF-MP2-F12/3C(FIX)                    -0.024573859156     -0.003790470074     -0.028364329230

 DF-MP2-F12 correlation energies:
 --------------------------------
 Approx.                                    Singlet             Triplet             Ecorr            Total Energy
 DF-MP2                                -0.170699476656     -0.097789515473     -0.268488992129    -76.333534158687
 DF-MP2-F12/3*C(DX,FIX)                -0.200449098657     -0.102680929461     -0.303130028118    -76.368175194677
 DF-MP2-F12/3*C(FIX)                   -0.195155934690     -0.101590156615     -0.296746091305    -76.361791257863
 DF-MP2-F12/3C(FIX)                    -0.195273335813     -0.101579985546     -0.296853321359    -76.361898487917

 SCS-DF-MP2 energies (F_SING= 1.20000  F_TRIP= 0.62222  F_PARALLEL= 0.33333):
 ----------------------------------------------------------------------------
 SCS-DF-MP2                            -0.265686181615    -76.330731348173
 SCS-DF-MP2-F12/3*C(DX,FIX)            -0.304429274497    -76.369474441056
 SCS-DF-MP2-F12/3*C(FIX)               -0.297398774633    -76.362443941191
 SCS-DF-MP2-F12/3C(FIX)                -0.297533327315    -76.362578493873

 Symmetry restored.
 Symmetry transformation completed.

 Number of N-1 electron functions:               4
 Number of N-2 electron functions:              10
 Number of singly external CSFs:               185
 Number of doubly external CSFs:             30571
 Total number of CSFs:                       30757

 Pair and operator lists are different

 Length of J-op  integral file:               8.38 MB
 Length of K-op  integral file:              12.84 MB
 Length of 3-ext integral record:             0.00 MB

 Memory could be reduced to 2.54 Mwords without degradation in triples

 Integral transformation finished. Total CPU:   0.06 sec, npass=  1  Memory used:   0.77 MW

 Reference energy:                    -76.06504517

 Adding F12 terms to K(Cij), methodcc=6,  factor=1.0

 ITER.      SQ.NORM     CORR.ENERGY   TOTAL ENERGY   ENERGY CHANGE        DEN1      VAR(S)    VAR(P)  DIIS     TIME
   1      1.06114625    -0.26831826   -76.33336343     0.00019333     0.00591686  0.74D-03  0.97D-03  1  1     0.58
   2      1.06438469    -0.26797556   -76.33302072     0.00034271    -0.00446301  0.12D-04  0.10D-03  2  2     0.61
   3      1.06551648    -0.26808649   -76.33313165    -0.00011093    -0.00076827  0.87D-05  0.53D-05  3  3     0.65
   4      1.06596910    -0.26812175   -76.33316692    -0.00003526    -0.00026033  0.37D-06  0.55D-06  4  4     0.69
   5      1.06605228    -0.26811851   -76.33316368     0.00000324    -0.00002479  0.13D-06  0.35D-07  5  5     0.74
   6      1.06608033    -0.26811662   -76.33316178     0.00000190    -0.00000403  0.10D-07  0.23D-08  6  6     0.78
   7      1.06608646    -0.26811622   -76.33316138     0.00000040    -0.00000132  0.77D-09  0.33D-09  6  1     0.82
   8      1.06608758    -0.26811633   -76.33316150    -0.00000012     0.00000015  0.86D-10  0.28D-10  6  2     0.86

 Norm of t1 vector:      0.03590234      S-energy:    -0.00000011      T1 diagnostic:  0.00897558
                                                                       D1 diagnostic:  0.01781677

 Adding energy correction from Wij-K(Fij), methodcc=6  factor=1.0
 
  CCSD correlation energy              -0.268116332715
  MP2-F12 correction (uncoupled)       -0.028068713250
  C*T doubles correction               -0.000436032105
  f12b correction                       0.004752241717


 Total CPU time for triples:      0.11 sec


 RESULTS
 =======

  Reference energy                    -76.060470867816
  F12 singles correction               -0.004574298743

 F12 singles corrections added to reference energy

  New reference energy                -76.065045166558

  F12a singlet correction              -0.024656352423
  F12a triplet correction              -0.003848392932
  F12a total correction                -0.028504745355

 F12a corrections for ansatz F12/3C(FIX) added to CCSD energy
 
  CCSD-F12a singlet pair energy        -0.206152974290
  CCSD-F12a triplet pair energy        -0.090467998351
  CCSD-F12a correlation energy         -0.296621078070

  Triples (T) contribution             -0.008443574377
  Total correlation energy             -0.305064652447

  CCSD-F12a total energy              -76.361666244629
  CCSD[T]-F12a energy                 -76.370408715241
  CCSD-T-F12a energy                  -76.369987982103
 !CCSD(T)-F12a total energy           -76.370109819005

 F12b corrections for ansatz F12/3C(FIX) added to CCSD(T)-F12a energy

  CCSD-F12b singlet pair energy        -0.201762775254
  CCSD-F12b triplet pair energy        -0.090105955670
  CCSD-F12b correlation energy         -0.291868836353

  Triples (T) contribution             -0.008443574377
  Total correlation energy             -0.300312410730

  CCSD-F12b total energy              -76.356914002911
  CCSD[T]-F12b energy                 -76.365656473523
  CCSD-T-F12b energy                  -76.365235740386
 !CCSD(T)-F12b total energy           -76.365357577288

 Timing summary (sec):

 STEP                 CPU(USER)    SYS     CPU(TOT)    WALL
 Transformation          0.06      0.01      0.07      0.06
 CCSD iterations         0.35      0.04      0.39      0.39
 Triples                 0.11      0.00      0.11      0.12
 MP2-F12                 0.46      0.03      0.49      0.49
 F12b energy             0.03      0.00      0.03      0.03

 Program statistics:

 Available memory in ccsd:                99999786
 Min. memory needed in ccsd:                147244
 Max. memory used in ccsd:                  168805
 Max. memory used in cckext:                253784 ( 9 integral passes)



 **********************************************************************************************************************************
 DATASETS  * FILE   NREC   LENGTH (MB)   RECORD NAMES
              1      20        8.76       500      610      700      900      950      970     1000      129      960     1100   
                                          VAR    BASINP    GEOM    SYMINP    ZMAT    AOBASIS   BASIS     P2S    ABASIS      S 
                                         1400     1410     1200     1210     1080     1600     1650     1700      960(1)  1380   
                                           T        V       H0       H01     AOSYM     SMH    MOLCAS    OPER    ABASIS    JKOP   

              2       5        0.48       700     1000     2100     7360     7350   
                                         GEOM     BASIS     RHF    F12ABS    EF12   

 PROGRAMS   *        TOTAL   CCSD(T)        HF       INT
 CPU TIMES  *         1.46      1.02      0.10      0.26
 REAL TIME  *         1.65 SEC
 DISK USED  *        99.79 MB      
 SF USED    *        39.37 MB      
 GA USED    *         2.40 MB       (max)       0.00 MB       (current)
 **********************************************************************************************************************************

     CCSD(T)-F12        HF-SCF  
    -76.36535758    -76.06047087
 **********************************************************************************************************************************
 Variable memory released
