
 Primary working directories    : /scratch/kee
 Secondary working directories  : /scratch/kee
 Wavefunction directory         : /home/kee/wfu/
 Main file repository           : /scratch/kee/

 ARCHNAME  : Linux/x86_64
 FC        : /opt/intel/composer_xe_2015.0.090/bin/intel64/ifort
 FCVERSION : 15.0.0
 BLASLIB   : -L/opt/intel/mkl/lib/intel64 -lmkl_intel_ilp64 -lmkl_sequential -lmkl_core
 id        : emory

 Nodes     nprocs
 node20       3
 Number of processes for MPI-2 version of Molpro:   nprocs(total)=    4   nprocs(compute)=    3   nprocs(helper)=    1
 ga_uses_ma=false, calling ma_init with nominal heap.
 GA-space will be limited to   8.0 MW (determined by -G option)

 Using customized tuning parameters: mindgm=7; mindgv=32; mindgc=1; mindgr=1; noblas=0; mincuda=1000; minvec=7
 default implementation of scratch files=sf  

 ***,co2h2o
 memory,100,m
 basis avtz
 geomtype = xyz
 geometry = {
 3
       0.00000000
 O    12.74975033    9.35442866    3.35543063
 H    13.54130484    9.66338431    2.91308199
 H    13.06373614    8.87580091    4.12355286
 }
 hf
 ccsd(t)-f12
 ---

 Variables initialized (665), CPU time= 0.00 sec
 Commands  initialized (462), CPU time= 0.01 sec, 486 directives.
 Default parameters read. Elapsed time= 0.03 sec

 Checking input...
 Passed
1


                                         ***  PROGRAM SYSTEM MOLPRO  ***
                         Copyright, University College Cardiff Consultants Limited, 2008

                                    Version 2010.1 linked 9 Dec 2014 15:06:28 


 **********************************************************************************************************************************
 LABEL *   co2h2o                                                                        
 Linux-2.6.32-504.el6.x86_64/node20(x86_64) 64 bit mpp version                           DATE: 15-Dec-16          TIME: 00:26:09  
 **********************************************************************************************************************************

 Patch level:      19
 **********************************************************************************************************************************

 Variable memory set to  100000000 words,  buffer space   230000 words

 SETTING BASIS          =    AVTZ
 SETTING GEOMTYPE       =    XYZ

Geometry recognized as XYZ



 Recomputing integrals since basis changed


 Using spherical harmonics

 Library entry O      S aug-cc-pVTZ          selected for orbital group  1
 Library entry O      P aug-cc-pVTZ          selected for orbital group  1
 Library entry O      D aug-cc-pVTZ          selected for orbital group  1
 Library entry O      F aug-cc-pVTZ          selected for orbital group  1
 Library entry H      S aug-cc-pVTZ          selected for orbital group  2
 Library entry H      P aug-cc-pVTZ          selected for orbital group  2
 Library entry H      D aug-cc-pVTZ          selected for orbital group  2

1PROGRAM * SEWARD (Integral evaluation for generally contracted gaussian basis sets)     Author: Roland Lindh, 1990

 Geometry written to block  1 of record 700


 Point group  C1  



 ATOMIC COORDINATES

 NR  ATOM    CHARGE       X              Y              Z

   1  O       8.00   24.093536368   17.677308283    6.340844944
   2  H       1.00   25.589357610   18.261149849    5.504927159
   3  H       1.00   24.686883558   16.772832917    7.792385594

 Bond lengths in Bohr (Angstrom)

 1-2  1.810279178  1-3  1.810278110
     (0.957958483)     (0.957957918)

 Bond angles

  2-1-3  105.10354968

 NUCLEAR CHARGE:                   10
 NUMBER OF PRIMITIVE AOS:         121
 NUMBER OF SYMMETRY AOS:          108
 NUMBER OF CONTRACTIONS:           92   (  92A   )
 NUMBER OF CORE ORBITALS:           1   (   1A   )
 NUMBER OF VALENCE ORBITALS:        6   (   6A   )


 NUCLEAR REPULSION ENERGY    9.18632047


 Eigenvalues of metric

         1 0.384E-03 0.392E-03 0.167E-02 0.186E-02 0.320E-02 0.510E-02 0.554E-02 0.594E-02


 Contracted 2-electron integrals neglected if value below      1.0D-11
 AO integral compression algorithm  1   Integral accuracy      1.0D-11

     51.380 MB (compressed) written to integral file ( 54.1%)

     Node minimum: 12.845 MB, node maximum: 24.642 MB


 NUMBER OF SORTED TWO-ELECTRON INTEGRALS:    3052353.     BUFFER LENGTH:  32768
 NUMBER OF SEGMENTS:   1  SEGMENT LENGTH:    3052353      RECORD LENGTH: 524288

 Memory used in sort:       3.61 MW

 SORT1 READ    11938930. AND WROTE     2855351. INTEGRALS IN      9 RECORDS. CPU TIME:     0.16 SEC, REAL TIME:     0.20 SEC
 SORT2 READ     8560728. AND WROTE     9152781. INTEGRALS IN    147 RECORDS. CPU TIME:     0.05 SEC, REAL TIME:     0.08 SEC

 Node minimum:     3049501.  Node maximum:     3052353. integrals

 OPERATOR DM      FOR CENTER  0  COORDINATES:    0.000000    0.000000    0.000000


 **********************************************************************************************************************************
 DATASETS  * FILE   NREC   LENGTH (MB)   RECORD NAMES
              1      18        2.91       500      610      700      900      950      970     1000      129      960     1100   
                                          VAR    BASINP    GEOM    SYMINP    ZMAT    AOBASIS   BASIS     P2S    ABASIS      S 
                                         1400     1410     1200     1210     1080     1600     1650     1700   
                                           T        V       H0       H01     AOSYM     SMH    MOLCAS    OPER   

 PROGRAMS   *        TOTAL       INT
 CPU TIMES  *         0.49      0.42
 REAL TIME  *         0.85 SEC
 DISK USED  *       160.29 MB      
 GA USED    *         0.00 MB       (max)       0.00 MB       (current)
 **********************************************************************************************************************************

1PROGRAM * RHF-SCF (CLOSED SHELL)       Authors: W. Meyer, H.-J. Werner


 NUMBER OF ELECTRONS:       5+    5-    SPACE SYMMETRY=1    SPIN SYMMETRY=Singlet 
 CONVERGENCE THRESHOLDS:    1.00E-05 (Density)    1.00E-07 (Energy)
 MAX. NUMBER OF ITERATIONS:       60
 INTERPOLATION TYPE:            DIIS
 INTERPOLATION STEPS:              2 (START)      1 (STEP)
 LEVEL SHIFTS:                  0.00 (CLOSED)  0.00 (OPEN) 



 Orbital guess generated from atomic densities. Full valence occupancy:    7

 Molecular orbital dump at record        2100.2

 ITERATION    DDIFF          GRAD             ENERGY        2-EL.EN.            DIPOLE MOMENTS         DIIS
    1      0.000D+00      0.000D+00       -76.02289928     77.643131    1.06920   -0.16409    0.31507    0
    2      0.000D+00      0.657D-02       -76.04960029     74.079762    0.63397   -0.09730    0.18681    1
    3      0.111D-01      0.410D-02       -76.06039169     75.640418    0.74141   -0.11379    0.21847    2
    4      0.390D-02      0.380D-03       -76.06057234     75.552043    0.73822   -0.11330    0.21753    3
    5      0.500D-03      0.102D-03       -76.06058972     75.565458    0.73705   -0.11312    0.21719    4
    6      0.145D-03      0.190D-04       -76.06059070     75.564748    0.73691   -0.11310    0.21715    5
    7      0.331D-04      0.362D-05       -76.06059074     75.564863    0.73683   -0.11308    0.21712    6
    8      0.858D-05      0.110D-05       -76.06059075     75.564805    0.73680   -0.11308    0.21712    0

 Final occupancy:   5

 !RHF STATE 1.1 Energy                -76.060590745435
 Nuclear energy                         9.18632047
 One-electron energy                 -123.02931355
 Two-electron energy                   37.78240234
 Virial quotient                       -1.00139285
 !RHF STATE 1.1 Dipole moment           0.73680243    -0.11308034     0.21711634
 Dipole moment /Debye                   1.87264233    -0.28740273     0.55181855

 Orbital energies:

         1.1          2.1          3.1          4.1          5.1          6.1          7.1
    -20.567064    -1.352809    -0.718595    -0.583657    -0.510129     0.029472     0.047645


 **********************************************************************************************************************************
 DATASETS  * FILE   NREC   LENGTH (MB)   RECORD NAMES
              1      18        2.91       500      610      700      900      950      970     1000      129      960     1100   
                                          VAR    BASINP    GEOM    SYMINP    ZMAT    AOBASIS   BASIS     P2S    ABASIS      S 
                                         1400     1410     1200     1210     1080     1600     1650     1700   
                                           T        V       H0       H01     AOSYM     SMH    MOLCAS    OPER   

              2       3        0.47       700     1000     2100   
                                         GEOM     BASIS     RHF  

 PROGRAMS   *        TOTAL        HF       INT
 CPU TIMES  *         0.72      0.23      0.42
 REAL TIME  *         1.11 SEC
 DISK USED  *       173.89 MB      
 SF USED    *         0.03 MB      
 GA USED    *         0.00 MB       (max)       0.00 MB       (current)
 **********************************************************************************************************************************


1PROGRAM * CCSD (Closed-shell coupled cluster)     Authors: C. Hampel, H.-J. Werner, 1991, M. Deegan, P.J. Knowles, 1992

                                  CCSD-F12 implementation by  H.-J. Werner, 2007

                   Density fitting integral evaluation by F.R. Manby, 2003,2007, G. Knizia, 2010

 Basis set CC-PVTZ/JKFIT generated.      Number of basis functions:   139 
 Basis set AUG-CC-PVTZ/MP2FIT generated. Number of basis functions:   198 

 Convergence thresholds:  THRVAR = 1.00D-08  THRDEN = 1.00D-06

 CCSD(T)     terms to be evaluated (factor= 1.000)


 Number of core orbitals:           1 (   1 )
 Number of closed-shell orbitals:   4 (   4 )
 Number of external orbitals:      87 (  87 )

 Molecular orbitals read from record     2100.2  Type=RHF/CANONICAL (state 1.1)

 MP2-F12 correlation treatment (H.-J. Werner, 2006)
 --------------------------------------------------

 Using MP2-F12 with ansatz 3C(FIX)

 Using projected zeroth-order Hamiltonian (+Z)

 FOCKRIB=T FOCKRIC=T FOCKRIP=T CABSP=T CABSA=T CABSK=T CABSF=T GBC=F EBC=F DMAT=T NOFIK=T NOPAO=1 SOLVE=-1  USEPAO=0
 EXCH_A= T EXCH_B= F EXCH_C= F EXCH_P= F
 
 Geminal basis:    OPTFULL  GEM_TYPE=SLATER  BETA=1.0  NGEM=6

 Optimizing Gaussian exponents for each gem_beta

 Geminal optimization for beta= 1.0000
 Weight function:   m=0, omega= 1.4646

 Augmented Hessian optimization of geminal fit. Trust ratio= 0.40000
 Convergence reached after   2 iterations. Final gradient= 8.24D-16, Step= 4.32D-06, Delta= 1.28D-09
 
 Alpha:                 0.19532     0.81920     2.85917     9.50073    35.69989   197.79328
 Coeff:                 0.27070     0.30552     0.18297     0.10986     0.06810     0.04224
 

 All pairs explicitly correlated. Number of r12-pairs:           10
 
 AO(A)-basis ORBITAL           loaded. Number of functions:      92
 RI(R)-basis CC-PVTZ/JKFIT     loaded. Number of functions:     139
 DF-basis CC-PVTZ/JKFIT        loaded. Number of functions:     139

 Screening thresholds:   THRAO=  1.00D-10  THRMO=  1.00D-09  THRPROD=  1.00D-09
                         THRSW=  1.00D-05  THROV=  1.00D-12  THRF12=   1.00D-08

 CPU time for Fock operators                      0.08 sec
 
 Construction of ABS:
 Smallest eigenvalue of S          3.59E-04  (threshold= 1.00E-08)
 Ratio eigmin/eigmax               3.30E-06  (threshold= 1.00E-09)
 Smallest eigenvalue of S kept     3.59E-04  (threshold= 3.59E-04, 0 functions deleted, 139 kept)
 
 Construction of CABS:
 Smallest eigenvalue of S          4.94E-08  (threshold= 1.00E-08)
 Ratio eigmin/eigmax               4.94E-08  (threshold= 1.00E-09)
 Smallest eigenvalue of S kept     4.94E-08  (threshold= 4.94E-08, 0 functions deleted, 139 kept)
 
 CPU time for CABS singles                        0.01 sec

 CABS-singles contribution of  -0.00457965 patched into reference energy.
 New reference energy         -76.06517040
 
 AO(A)-basis ORBITAL           loaded. Number of functions:      92
 RI(R)-basis CC-PVTZ/JKFIT     loaded. Number of functions:     139
 DF-basis AUG-CC-PVTZ/MP2FIT   loaded. Number of functions:     198

 Screening thresholds:   THRAO=  1.00D-10  THRMO=  1.00D-09  THRPROD=  1.00D-09
                         THRSW=  1.00D-05  THROV=  1.00D-12  THRF12=   1.00D-08

 CPU time for 3-index integral evaluation         0.21 sec
 CPU time for first  half transformation          0.01 sec ( 5761.1 MFLOP/sec)
 CPU time for sorting                             0.01 sec
 CPU time for tilde quantities                    0.01 sec ( 2689.4 MFLOP/sec)
 CPU time for assembly                            0.02 sec ( 7443.5 MFLOP/sec)
 CPU time for tranop_f12                          0.01 sec (19243.5 MFLOP/sec)
 CPU time for f12 integrals (total)               0.40 sec
 F12-matrices built in  3 passes.
 F12-matrices built in  3 passes.
 F12-matrices built in  3 passes.
 F12-matrices built in  3 passes.
 FC-matrix built in  3 passes.
 CPU time for f12 matrices (total)                0.01 sec

 Diagonal F12 approximation with fixed coefficients:  TSING= 0.500,  TTRIP= 0.250 (scaled by -1/beta)

 DF-MP2-F12 energy corrections:
 ------------------------------
 Approx.                                    Singlet             Triplet             Total
 DF-MP2-F12/3*C(DX,FIX)                -0.029762127449     -0.004893894989     -0.034656022438
 DF-MP2-F12/3*C(FIX)                   -0.024468149623     -0.003802507133     -0.028270656756
 DF-MP2-F12/3C(FIX)                    -0.024584649954     -0.003791958893     -0.028376608847

 DF-MP2-F12 correlation energies:
 --------------------------------
 Approx.                                    Singlet             Triplet             Ecorr            Total Energy
 DF-MP2                                -0.170605078806     -0.097735472592     -0.268340551398    -76.333510947167
 DF-MP2-F12/3*C(DX,FIX)                -0.200367206255     -0.102629367582     -0.302996573836    -76.368166969605
 DF-MP2-F12/3*C(FIX)                   -0.195073228429     -0.101537979725     -0.296611208154    -76.361781603922
 DF-MP2-F12/3C(FIX)                    -0.195189728760     -0.101527431485     -0.296717160245    -76.361887556013

 SCS-DF-MP2 energies (F_SING= 1.20000  F_TRIP= 0.62222  F_PARALLEL= 0.33333):
 ----------------------------------------------------------------------------
 SCS-DF-MP2                            -0.265539277514    -76.330709673282
 SCS-DF-MP2-F12/3*C(DX,FIX)            -0.304298920668    -76.369469316436
 SCS-DF-MP2-F12/3*C(FIX)               -0.297267061499    -76.362437457268
 SCS-DF-MP2-F12/3C(FIX)                -0.297400298547    -76.362570694315
 Symmetry transformation completed.

 Number of N-1 electron functions:               4
 Number of N-2 electron functions:              10
 Number of singly external CSFs:               348
 Number of doubly external CSFs:             60726
 Total number of CSFs:                       61075

 Pair and operator lists are different

 Length of J-op  integral file:               8.56 MB
 Length of K-op  integral file:              14.10 MB
 Length of 3-ext integral record:             0.00 MB

 Memory could be reduced to 4.80 Mwords without degradation in triples

 Integral transformation finished. Total CPU:   0.14 sec, npass=  1  Memory used:   2.30 MW

 Reference energy:                    -76.06517040

 Adding F12 terms to K(Cij), methodcc=6,  factor=1.0

 ITER.      SQ.NORM     CORR.ENERGY   TOTAL ENERGY   ENERGY CHANGE        DEN1      VAR(S)    VAR(P)  DIIS     TIME
   1      1.06105153    -0.26818667   -76.33335707     0.00017654     0.00588016  0.74D-03  0.97D-03  1  1     0.76
   2      1.06427473    -0.26784383   -76.33301422     0.00034284    -0.00444852  0.12D-04  0.10D-03  2  2     0.83
   3      1.06539773    -0.26795416   -76.33312456    -0.00011034    -0.00076395  0.86D-05  0.52D-05  3  3     0.89
   4      1.06584645    -0.26798926   -76.33315965    -0.00003509    -0.00025860  0.36D-06  0.55D-06  4  4     0.95
   5      1.06592893    -0.26798604   -76.33315644     0.00000321    -0.00002459  0.13D-06  0.35D-07  5  5     1.02
   6      1.06595678    -0.26798417   -76.33315456     0.00000188    -0.00000400  0.10D-07  0.23D-08  6  6     1.09
   7      1.06596287    -0.26798377   -76.33315417     0.00000040    -0.00000131  0.77D-09  0.32D-09  6  1     1.15
   8      1.06596398    -0.26798389   -76.33315428    -0.00000012     0.00000015  0.87D-10  0.28D-10  6  2     1.21

 Norm of t1 vector:      0.03576626      S-energy:     0.00000003      T1 diagnostic:  0.00894157
                                                                       D1 diagnostic:  0.01772598

 Adding energy correction from Wij-K(Fij), methodcc=6  factor=1.0
 
  CCSD correlation energy              -0.267983887921
  MP2-F12 correction (uncoupled)       -0.028083139743
  C*T doubles correction               -0.000435109147
  f12b correction                       0.004752338867


 Total CPU time for triples:      0.39 sec


 RESULTS
 =======

  Reference energy                    -76.060590745435
  F12 singles correction               -0.004579650334

 F12 singles corrections added to reference energy

  New reference energy                -76.065170395768

  F12a singlet correction              -0.024667963398
  F12a triplet correction              -0.003850285492
  F12a total correction                -0.028518248890

 F12a corrections for ansatz F12/3C(FIX) added to CCSD energy
 
  CCSD-F12a singlet pair energy        -0.206053703234
  CCSD-F12a triplet pair energy        -0.090448467171
  CCSD-F12a correlation energy         -0.296502136811

  Triples (T) contribution             -0.008427447159
  Total correlation energy             -0.304929583970

  CCSD-F12a total energy              -76.361672532579
  CCSD[T]-F12a energy                 -76.370397299006
  CCSD-T-F12a energy                  -76.369978957788
 !CCSD(T)-F12a total energy           -76.370099979738

 F12b corrections for ansatz F12/3C(FIX) added to CCSD(T)-F12a energy

  CCSD-F12b singlet pair energy        -0.201663570204
  CCSD-F12b triplet pair energy        -0.090086261334
  CCSD-F12b correlation energy         -0.291749797944

  Triples (T) contribution             -0.008427447159
  Total correlation energy             -0.300177245102

  CCSD-F12b total energy              -76.356920193712
  CCSD[T]-F12b energy                 -76.365644960139
  CCSD-T-F12b energy                  -76.365226618921
 !CCSD(T)-F12b total energy           -76.365347640871

 Timing summary (sec):

 STEP                 CPU(USER)    SYS     CPU(TOT)    WALL
 Transformation          0.14      0.02      0.16      0.16
 CCSD iterations         0.54      0.06      0.60      0.61
 Triples                 0.39      0.01      0.40      0.40
 MP2-F12                 0.53      0.04      0.57      0.56
 F12b energy             0.05      0.00      0.05      0.05

 Program statistics:

 Available memory in ccsd:                99999786
 Min. memory needed in ccsd:                289388
 Max. memory used in ccsd:                  331202
 Max. memory used in cckext:                243364 ( 9 integral passes)



 **********************************************************************************************************************************
 DATASETS  * FILE   NREC   LENGTH (MB)   RECORD NAMES
              1      20       14.74       500      610      700      900      950      970     1000      129      960     1100   
                                          VAR    BASINP    GEOM    SYMINP    ZMAT    AOBASIS   BASIS     P2S    ABASIS      S 
                                         1400     1410     1200     1210     1080     1600     1650     1700      960(1)  1380   
                                           T        V       H0       H01     AOSYM     SMH    MOLCAS    OPER    ABASIS    JKOP   

              2       5        0.65       700     1000     2100     7360     7350   
                                         GEOM     BASIS     RHF    F12ABS    EF12   

 PROGRAMS   *        TOTAL   CCSD(T)        HF       INT
 CPU TIMES  *         2.39      1.67      0.23      0.42
 REAL TIME  *         2.91 SEC
 DISK USED  *       192.30 MB      
 SF USED    *        46.41 MB      
 GA USED    *         2.40 MB       (max)       0.00 MB       (current)
 **********************************************************************************************************************************

     CCSD(T)-F12        HF-SCF  
    -76.36534764    -76.06059075
 **********************************************************************************************************************************
 Variable memory released
