
 Primary working directories    : /scratch/kee
 Secondary working directories  : /scratch/kee
 Wavefunction directory         : /home/kee/wfu/
 Main file repository           : /scratch/kee/

 ARCHNAME  : Linux/x86_64
 FC        : /opt/intel/composer_xe_2015.0.090/bin/intel64/ifort
 FCVERSION : 15.0.0
 BLASLIB   : -L/opt/intel/mkl/lib/intel64 -lmkl_intel_ilp64 -lmkl_sequential -lmkl_core
 id        : emory

 Nodes     nprocs
 node7        3
 Number of processes for MPI-2 version of Molpro:   nprocs(total)=    4   nprocs(compute)=    3   nprocs(helper)=    1
 ga_uses_ma=false, calling ma_init with nominal heap.
 GA-space will be limited to   8.0 MW (determined by -G option)

 Using customized tuning parameters: mindgm=7; mindgv=32; mindgc=1; mindgr=1; noblas=0; mincuda=1000; minvec=7
 default implementation of scratch files=sf  

 ***,co2h2o
 memory,100,m
 basis avtz
 geomtype = xyz
 geometry = {
 6
       0.00000000
 O     0.00351000    1.16210700    0.00000000
 O     0.00351000   -1.16210700    0.00000000
 O     4.36968000    0.00000000    0.00000000
 H     4.95589800    0.00000000    0.75853100
 H     4.95589800    0.00000000   -0.75853100
 C     0.01968000    0.00000000    0.00000000
 }
 hf
 ccsd(t)-f12
 ---

 Variables initialized (665), CPU time= 0.01 sec
 Commands  initialized (462), CPU time= 0.00 sec, 486 directives.
 Default parameters read. Elapsed time= 0.03 sec

 Checking input...
 Passed
1


                                         ***  PROGRAM SYSTEM MOLPRO  ***
                         Copyright, University College Cardiff Consultants Limited, 2008

                                    Version 2010.1 linked 9 Dec 2014 15:06:28 


 **********************************************************************************************************************************
 LABEL *   co2h2o                                                                        
 Linux-2.6.32-504.el6.x86_64/node7(x86_64) 64 bit mpp version                            DATE: 12-Dec-16          TIME: 14:49:25  
 **********************************************************************************************************************************

 Patch level:      19
 **********************************************************************************************************************************

 Variable memory set to  100000000 words,  buffer space   230000 words

 SETTING BASIS          =    AVTZ
 SETTING GEOMTYPE       =    XYZ

Geometry recognized as XYZ



 Recomputing integrals since basis changed


 Using spherical harmonics

 Library entry O      S aug-cc-pVTZ          selected for orbital group  1
 Library entry O      P aug-cc-pVTZ          selected for orbital group  1
 Library entry O      D aug-cc-pVTZ          selected for orbital group  1
 Library entry O      F aug-cc-pVTZ          selected for orbital group  1
 Library entry H      S aug-cc-pVTZ          selected for orbital group  2
 Library entry H      P aug-cc-pVTZ          selected for orbital group  2
 Library entry H      D aug-cc-pVTZ          selected for orbital group  2
 Library entry C      S aug-cc-pVTZ          selected for orbital group  3
 Library entry C      P aug-cc-pVTZ          selected for orbital group  3
 Library entry C      D aug-cc-pVTZ          selected for orbital group  3
 Library entry C      F aug-cc-pVTZ          selected for orbital group  3

1PROGRAM * SEWARD (Integral evaluation for generally contracted gaussian basis sets)     Author: Roland Lindh, 1990

 Geometry written to block  1 of record 700


 Point group  C2v 



 ATOMIC COORDINATES

 NR  ATOM    CHARGE       X              Y              Z

   1  O       8.00    0.006632939    2.196063965    0.000000000
   2  O       8.00    0.006632939   -2.196063965    0.000000000
   3  O       8.00    8.257498482    0.000000000    0.000000000
   4  H       1.00    9.365289955    0.000000000    1.433415852
   5  H       1.00    9.365289955    0.000000000   -1.433415852
   6  C       6.00    0.037189810    0.000000000    0.000000000

 Bond lengths in Bohr (Angstrom)

 1-6  2.196276545  2-6  2.196276545  3-4  1.811596797  3-5  1.811596797
     (1.162219492)     (1.162219492)     (0.958655737)     (0.958655737)

 Bond angles

  1-6-2  178.40563223   4-3-5  104.60391356

 NUCLEAR CHARGE:                   32
 NUMBER OF PRIMITIVE AOS:         322
 NUMBER OF SYMMETRY AOS:          282
 NUMBER OF CONTRACTIONS:          230   (  84A1  +  59B1  +  54B2  +  33A2  )
 NUMBER OF CORE ORBITALS:           4   (   3A1  +   1B1  +   0B2  +   0A2  )
 NUMBER OF VALENCE ORBITALS:       18   (   8A1  +   5B1  +   4B2  +   1A2  )


 NUCLEAR REPULSION ENERGY   92.85744091


 Eigenvalues of metric

         1 0.360E-03 0.368E-03 0.896E-03 0.162E-02 0.299E-02 0.320E-02 0.373E-02 0.420E-02
         2 0.348E-03 0.919E-03 0.175E-02 0.330E-02 0.550E-02 0.740E-02 0.167E-01 0.209E-01
         3 0.389E-03 0.165E-02 0.317E-02 0.466E-02 0.620E-02 0.971E-02 0.135E-01 0.150E-01
         4 0.348E-02 0.124E-01 0.296E-01 0.362E-01 0.559E-01 0.679E-01 0.110E+00 0.140E+00


 Contracted 2-electron integrals neglected if value below      1.0D-11
 AO integral compression algorithm  1   Integral accuracy      1.0D-11

     291.504 MB (compressed) written to integral file ( 32.7%)

     Node minimum: 91.488 MB, node maximum: 105.120 MB


 NUMBER OF SORTED TWO-ELECTRON INTEGRALS:   29979201.     BUFFER LENGTH:  32768
 NUMBER OF SEGMENTS:   2  SEGMENT LENGTH:   15996954      RECORD LENGTH: 524288

 Memory used in sort:      16.55 MW

 SORT1 READ   111555100. AND WROTE    20891380. INTEGRALS IN     60 RECORDS. CPU TIME:     2.24 SEC, REAL TIME:     2.50 SEC
 SORT2 READ    62886594. AND WROTE    89930217. INTEGRALS IN   1047 RECORDS. CPU TIME:     0.62 SEC, REAL TIME:     0.81 SEC

 Node minimum:    29974277.  Node maximum:    29979201. integrals

 OPERATOR DM      FOR CENTER  0  COORDINATES:    0.000000    0.000000    0.000000


 **********************************************************************************************************************************
 DATASETS  * FILE   NREC   LENGTH (MB)   RECORD NAMES
              1      18        3.23       500      610      700      900      950      970     1000      129      960     1100   
                                          VAR    BASINP    GEOM    SYMINP    ZMAT    AOBASIS   BASIS     P2S    ABASIS      S 
                                         1400     1410     1200     1210     1080     1600     1650     1700   
                                           T        V       H0       H01     AOSYM     SMH    MOLCAS    OPER   

 PROGRAMS   *        TOTAL       INT
 CPU TIMES  *         4.97      4.91
 REAL TIME  *         5.53 SEC
 DISK USED  *         1.03 GB      
 GA USED    *         0.00 MB       (max)       0.00 MB       (current)
 **********************************************************************************************************************************

1PROGRAM * RHF-SCF (CLOSED SHELL)       Authors: W. Meyer, H.-J. Werner


 NUMBER OF ELECTRONS:      16+   16-
 CONVERGENCE THRESHOLDS:    1.00E-05 (Density)    1.00E-07 (Energy)
 MAX. NUMBER OF ITERATIONS:       60
 INTERPOLATION TYPE:            DIIS
 INTERPOLATION STEPS:              2 (START)      1 (STEP)
 LEVEL SHIFTS:                  0.00 (CLOSED)  0.00 (OPEN) 



 Orbital guess generated from atomic densities. Full valence occupancy:   11   6   4   1

 Molecular orbital dump at record        2100.2

 Initial alpha occupancy:   8   5   2   1
 Initial beta  occupancy:   8   5   2   1
 Wave function symmetry:    1

 ITERATION    DDIFF          GRAD             ENERGY        2-EL.EN.            DIPOLE MOMENTS         DIIS
    1      0.000D+00      0.000D+00      -263.66220988    381.660447    1.18110    0.00000    0.00000    0
    2      0.000D+00      0.885D-02      -263.72717013    376.966612    0.73403    0.00000    0.00000    1
    3      0.142D-01      0.598D-02      -263.76973875    379.533764    0.84179    0.00000    0.00000    2
    4      0.584D-02      0.568D-03      -263.77023369    379.327966    0.84489    0.00000    0.00000    3
    5      0.696D-03      0.166D-03      -263.77029184    379.326404    0.83997    0.00000    0.00000    4
    6      0.259D-03      0.672D-04      -263.77029913    379.341755    0.84076    0.00000    0.00000    5
    7      0.862D-04      0.163D-04      -263.77029986    379.333244    0.84033    0.00000    0.00000    6
    8      0.281D-04      0.359D-05      -263.77029991    379.334563    0.84035    0.00000    0.00000    7
    9      0.768D-05      0.121D-05      -263.77029991    379.334354    0.84032    0.00000    0.00000    0

 Final occupancy:   8   5   2   1

 !RHF STATE 1.1 Energy               -263.770299910280
 Nuclear energy                        92.85744091
 One-electron energy                 -546.29491768
 Two-electron energy                  189.66717686
 Virial quotient                       -1.00183643
 !RHF STATE 1.1 Dipole moment           0.84031854     0.00000000     0.00000000
 Dipole moment /Debye                   2.13573679     0.00000000     0.00000000

 Orbital energies:

         1.1          2.1          3.1          4.1          5.1          6.1          7.1          8.1          9.1         10.1
    -20.643013   -20.570925   -11.452080    -1.520668    -1.356376    -0.791232    -0.704479    -0.588609     0.027504     0.059254

         1.2          2.2          3.2          4.2          5.2          6.2          7.2
    -20.643059    -1.467638    -0.733543    -0.534460    -0.513840     0.085584     0.154489

         1.3          2.3          3.3          4.3
     -0.720815    -0.704899     0.046001     0.084365

         1.4          2.4          3.4
     -0.534646     0.169375     0.264802


 **********************************************************************************************************************************
 DATASETS  * FILE   NREC   LENGTH (MB)   RECORD NAMES
              1      18        3.25       500      610      700      900      950      970     1000      129      960     1100   
                                          VAR    BASINP    GEOM    SYMINP    ZMAT    AOBASIS   BASIS     P2S    ABASIS      S 
                                         1400     1410     1200     1210     1080     1600     1650     1700   
                                           T        V       H0       H01     AOSYM     SMH    MOLCAS    OPER   

              2       3        0.67       700     1000     2100   
                                         GEOM     BASIS     RHF  

 PROGRAMS   *        TOTAL        HF       INT
 CPU TIMES  *         6.38      1.41      4.91
 REAL TIME  *         7.03 SEC
 DISK USED  *         1.05 GB      
 SF USED    *         0.06 MB      
 GA USED    *         0.00 MB       (max)       0.00 MB       (current)
 **********************************************************************************************************************************


1PROGRAM * CCSD (Closed-shell coupled cluster)     Authors: C. Hampel, H.-J. Werner, 1991, M. Deegan, P.J. Knowles, 1992

                                  CCSD-F12 implementation by  H.-J. Werner, 2007

                   Density fitting integral evaluation by F.R. Manby, 2003,2007, G. Knizia, 2010

 Basis set CC-PVTZ/JKFIT generated.      Number of basis functions:   376 
 Basis set AUG-CC-PVTZ/MP2FIT generated. Number of basis functions:   516 

 Convergence thresholds:  THRVAR = 1.00D-08  THRDEN = 1.00D-06

 CCSD(T)     terms to be evaluated (factor= 1.000)


 Number of core orbitals:           4 (   3   1   0   0 )
 Number of closed-shell orbitals:  12 (   5   4   2   1 )
 Number of external orbitals:     214 (  76  54  52  32 )

 Molecular orbitals read from record     2100.2  Type=RHF/CANONICAL (state 1.1)

 MP2-F12 correlation treatment (H.-J. Werner, 2006)
 --------------------------------------------------

 Using MP2-F12 with ansatz 3C(FIX)

 Using projected zeroth-order Hamiltonian (+Z)

 FOCKRIB=T FOCKRIC=T FOCKRIP=T CABSP=T CABSA=T CABSK=T CABSF=T GBC=F EBC=F DMAT=T NOFIK=T NOPAO=1 SOLVE=-1  USEPAO=0
 EXCH_A= T EXCH_B= F EXCH_C= F EXCH_P= F
 
 Geminal basis:    OPTFULL  GEM_TYPE=SLATER  BETA=1.0  NGEM=6

 Optimizing Gaussian exponents for each gem_beta

 Geminal optimization for beta= 1.0000
 Weight function:   m=0, omega= 1.4646

 Augmented Hessian optimization of geminal fit. Trust ratio= 0.40000
 Convergence reached after   2 iterations. Final gradient= 8.24D-16, Step= 4.32D-06, Delta= 1.28D-09
 
 Alpha:                 0.19532     0.81920     2.85917     9.50073    35.69989   197.79328
 Coeff:                 0.27070     0.30552     0.18297     0.10986     0.06810     0.04224
 

 Symmetry turned off. Reference energy:       -263.770299910280

 All pairs explicitly correlated. Number of r12-pairs:           78
 
 AO(A)-basis ORBITAL           loaded. Number of functions:     230
 RI(R)-basis CC-PVTZ/JKFIT     loaded. Number of functions:     376
 DF-basis CC-PVTZ/JKFIT        loaded. Number of functions:     376

 Screening thresholds:   THRAO=  1.00D-10  THRMO=  1.00D-09  THRPROD=  1.00D-09
                         THRSW=  1.00D-05  THROV=  1.00D-12  THRF12=   1.00D-08

 CPU time for Fock operators                      0.95 sec
 
 Construction of ABS:
 Smallest eigenvalue of S          2.57E-04  (threshold= 1.00E-08)
 Ratio eigmin/eigmax               1.83E-06  (threshold= 1.00E-09)
 Smallest eigenvalue of S kept     2.57E-04  (threshold= 2.57E-04, 0 functions deleted, 376 kept)
 
 Construction of CABS:
 Smallest eigenvalue of S          2.29E-08  (threshold= 1.00E-08)
 Ratio eigmin/eigmax               2.29E-08  (threshold= 1.00E-09)
 Smallest eigenvalue of S kept     2.29E-08  (threshold= 2.29E-08, 0 functions deleted, 376 kept)
 
 CPU time for CABS singles                        0.17 sec

 CABS-singles contribution of  -0.01592205 patched into reference energy.
 New reference energy        -263.78622196
 
 AO(A)-basis ORBITAL           loaded. Number of functions:     230
 RI(R)-basis CC-PVTZ/JKFIT     loaded. Number of functions:     376
 DF-basis AUG-CC-PVTZ/MP2FIT   loaded. Number of functions:     516

 Screening thresholds:   THRAO=  1.00D-10  THRMO=  1.00D-09  THRPROD=  1.00D-09
                         THRSW=  1.00D-05  THROV=  1.00D-12  THRF12=   1.00D-08

 CPU time for 3-index integral evaluation         2.84 sec
 CPU time for first  half transformation          0.27 sec (10413.8 MFLOP/sec)
 CPU time for second half transformation          0.02 sec ( 4856.8 MFLOP/sec)
 CPU time for sorting                             0.17 sec
 CPU time for fitting                             0.05 sec (27861.0 MFLOP/sec)
 CPU time for tilde quantities                    0.04 sec (46222.0 MFLOP/sec)
 CPU time for assembly                            0.80 sec (30034.7 MFLOP/sec)
 CPU time for tranop_f12                          0.93 sec (32444.3 MFLOP/sec)
 CPU time for f12 integrals (total)               7.26 sec
 F12-matrices built in  3 passes.
 F12-matrices built in  3 passes.
 F12-matrices built in  3 passes.
 F12-matrices built in  3 passes.
 FC-matrix built in  3 passes.
 CPU time for f12 matrices (total)                0.53 sec

 Diagonal F12 approximation with fixed coefficients:  TSING= 0.500,  TTRIP= 0.250 (scaled by -1/beta)

 DF-MP2-F12 energy corrections:
 ------------------------------
 Approx.                                    Singlet             Triplet             Total
 DF-MP2-F12/3*C(DX,FIX)                -0.097424114066     -0.016930872657     -0.114354986723
 DF-MP2-F12/3*C(FIX)                   -0.079845438894     -0.013394533693     -0.093239972587
 DF-MP2-F12/3C(FIX)                    -0.080207978961     -0.013418989734     -0.093626968695

 DF-MP2-F12 correlation energies:
 --------------------------------
 Approx.                                    Singlet             Triplet             Ecorr            Total Energy
 DF-MP2                                -0.537713101412     -0.343151761590     -0.880864863003   -264.667086822898
 DF-MP2-F12/3*C(DX,FIX)                -0.635137215478     -0.360082634248     -0.995219849726   -264.781441809621
 DF-MP2-F12/3*C(FIX)                   -0.617558540306     -0.356546295283     -0.974104835589   -264.760326795485
 DF-MP2-F12/3C(FIX)                    -0.617921080374     -0.356570751324     -0.974491831698   -264.760713791593

 SCS-DF-MP2 energies (F_SING= 1.20000  F_TRIP= 0.62222  F_PARALLEL= 0.33333):
 ----------------------------------------------------------------------------
 SCS-DF-MP2                            -0.858772373351   -264.644994333247
 SCS-DF-MP2-F12/3*C(DX,FIX)            -0.986216075439   -264.772438035334
 SCS-DF-MP2-F12/3*C(FIX)               -0.962921276543   -264.749143236439
 SCS-DF-MP2-F12/3C(FIX)                -0.963371541717   -264.749593501612

 Symmetry restored.
 Symmetry transformation completed.

 Number of N-1 electron functions:              12
 Number of N-2 electron functions:              78
 Number of singly external CSFs:               732
 Number of doubly external CSFs:            836016
 Total number of CSFs:                      836749

 Pair and operator lists are different

 Length of J-op  integral file:             462.26 MB
 Length of K-op  integral file:             502.03 MB
 Length of 3-ext integral record:             0.00 MB

 Memory could be reduced to 38.69 Mwords without degradation in triples

 Integral transformation finished. Total CPU:   1.45 sec, npass=  1  Memory used:   6.07 MW

 Reference energy:                   -263.78622196

 Adding F12 terms to K(Cij), methodcc=6,  factor=1.0

 ITER.      SQ.NORM     CORR.ENERGY   TOTAL ENERGY   ENERGY CHANGE        DEN1      VAR(S)    VAR(P)  DIIS     TIME
   1      1.20213274    -0.86282416  -264.64904612     0.01805670     0.04666221  0.72D-02  0.56D-02  1  1    11.68
   2      1.21644073    -0.85861132  -264.64483328     0.00421284    -0.02014070  0.87D-04  0.59D-03  2  2    12.66
   3      1.22180653    -0.85871063  -264.64493259    -0.00009931    -0.00236620  0.13D-03  0.32D-04  3  3    13.65
   4      1.22461183    -0.85858312  -264.64480508     0.00012751    -0.00141207  0.76D-05  0.41D-05  4  4    14.66
   5      1.22564291    -0.85854552  -264.64476748     0.00003760    -0.00036629  0.56D-06  0.29D-06  5  5    15.67
   6      1.22580532    -0.85851864  -264.64474060     0.00002688    -0.00000806  0.40D-07  0.24D-07  6  6    16.69
   7      1.22583475    -0.85851622  -264.64473818     0.00000242    -0.00000622  0.26D-08  0.40D-08  6  4    17.67
   8      1.22583507    -0.85851573  -264.64473769     0.00000049     0.00000194  0.39D-09  0.27D-09  6  1    18.66
   9      1.22583568    -0.85851580  -264.64473776    -0.00000007     0.00000056  0.26D-10  0.21D-10  6  2    19.64

 Norm of t1 vector:      0.10601106      S-energy:    -0.00000003      T1 diagnostic:  0.01530138
                                                                       D1 diagnostic:  0.04504350

 Adding energy correction from Wij-K(Fij), methodcc=6  factor=1.0
 
  CCSD correlation energy              -0.858515795588
  MP2-F12 correction (uncoupled)       -0.092469836855
  C*T doubles correction               -0.001473886080
  f12b correction                       0.015405383378


 Total CPU time for triples:     26.41 sec


 RESULTS
 =======

  Reference energy                   -263.770299910280
  F12 singles correction               -0.015922049616

 F12 singles corrections added to reference energy

  New reference energy               -263.786221959896

  F12a singlet correction              -0.080406722374
  F12a triplet correction              -0.013537000561
  F12a total correction                -0.093943722935

 F12a corrections for ansatz F12/3C(FIX) added to CCSD energy
 
  CCSD-F12a singlet pair energy        -0.641849901148
  CCSD-F12a triplet pair energy        -0.310609587618
  CCSD-F12a correlation energy         -0.952459518523

  Triples (T) contribution             -0.037655596852
  Total correlation energy             -0.990115115375

  CCSD-F12a total energy             -264.738681478419
  CCSD[T]-F12a energy                -264.778878472382
  CCSD-T-F12a energy                 -264.775401113966
 !CCSD(T)-F12a total energy          -264.776337075271

 F12b corrections for ansatz F12/3C(FIX) added to CCSD(T)-F12a energy

  CCSD-F12b singlet pair energy        -0.627668010625
  CCSD-F12b triplet pair energy        -0.309386094763
  CCSD-F12b correlation energy         -0.937054135145

  Triples (T) contribution             -0.037655596852
  Total correlation energy             -0.974709731997

  CCSD-F12b total energy             -264.723276095041
  CCSD[T]-F12b energy                -264.763473089003
  CCSD-T-F12b energy                 -264.759995730588
 !CCSD(T)-F12b total energy          -264.760931691893

 Timing summary (sec):

 STEP                 CPU(USER)    SYS     CPU(TOT)    WALL
 Transformation          1.46      0.20      1.66      1.66
 CCSD iterations         8.90      0.69      9.59      9.57
 Triples                26.41      1.06     27.47     27.47
 MP2-F12                 9.29      1.16     10.45     10.73
 F12b energy             0.60      0.01      0.61      0.62

 Program statistics:

 Available memory in ccsd:                99998934
 Min. memory needed in ccsd:               2244783
 Max. memory used in ccsd:                 3005571
 Max. memory used in cckext:               2769663 (10 integral passes)



 **********************************************************************************************************************************
 DATASETS  * FILE   NREC   LENGTH (MB)   RECORD NAMES
              1      20      137.19       500      610      700      900      950      970     1000      129      960     1100   
                                          VAR    BASINP    GEOM    SYMINP    ZMAT    AOBASIS   BASIS     P2S    ABASIS      S 
                                         1400     1410     1200     1210     1080     1600     1650     1700      960(1)  1380   
                                           T        V       H0       H01     AOSYM     SMH    MOLCAS    OPER    ABASIS    JKOP   

              2       5        0.97       700     1000     2100     7360     7350   
                                         GEOM     BASIS     RHF    F12ABS    EF12   

 PROGRAMS   *        TOTAL   CCSD(T)        HF       INT
 CPU TIMES  *        53.05     46.67      1.41      4.91
 REAL TIME  *        57.32 SEC
 DISK USED  *         1.27 GB      
 SF USED    *         1.34 GB      
 GA USED    *         2.40 MB       (max)       0.00 MB       (current)
 **********************************************************************************************************************************

     CCSD(T)-F12        HF-SCF  
   -264.76093169   -263.77029991
 **********************************************************************************************************************************
 Variable memory released
