
 Primary working directories    : /scratch/kee
 Secondary working directories  : /scratch/kee
 Wavefunction directory         : /home/kee/wfu/
 Main file repository           : /scratch/kee/

 ARCHNAME  : Linux/x86_64
 FC        : /opt/intel/composer_xe_2015.0.090/bin/intel64/ifort
 FCVERSION : 15.0.0
 BLASLIB   : -L/opt/intel/mkl/lib/intel64 -lmkl_intel_ilp64 -lmkl_sequential -lmkl_core
 id        : emory

 Nodes     nprocs
 node7        3
 Number of processes for MPI-2 version of Molpro:   nprocs(total)=    4   nprocs(compute)=    3   nprocs(helper)=    1
 ga_uses_ma=false, calling ma_init with nominal heap.
 GA-space will be limited to   8.0 MW (determined by -G option)

 Using customized tuning parameters: mindgm=7; mindgv=32; mindgc=1; mindgr=1; noblas=0; mincuda=1000; minvec=7
 default implementation of scratch files=sf  

 ***,co2h2o
 memory,100,m
 basis avtz
 geomtype = xyz
 geometry = {
 6
       0.00000000
 O     0.00351000    1.16210700    0.00000000
 O     0.00351000   -1.16210700    0.00000000
 O     4.91968000    0.00000000    0.00000000
 H     5.50589800    0.00000000    0.75853100
 H     5.50589800    0.00000000   -0.75853100
 C     0.01968000    0.00000000    0.00000000
 }
 hf
 ccsd(t)-f12
 ---

 Variables initialized (665), CPU time= 0.01 sec
 Commands  initialized (462), CPU time= 0.00 sec, 486 directives.
 Default parameters read. Elapsed time= 0.03 sec

 Checking input...
 Passed
1


                                         ***  PROGRAM SYSTEM MOLPRO  ***
                         Copyright, University College Cardiff Consultants Limited, 2008

                                    Version 2010.1 linked 9 Dec 2014 15:06:28 


 **********************************************************************************************************************************
 LABEL *   co2h2o                                                                        
 Linux-2.6.32-504.el6.x86_64/node7(x86_64) 64 bit mpp version                            DATE: 12-Dec-16          TIME: 15:00:01  
 **********************************************************************************************************************************

 Patch level:      19
 **********************************************************************************************************************************

 Variable memory set to  100000000 words,  buffer space   230000 words

 SETTING BASIS          =    AVTZ
 SETTING GEOMTYPE       =    XYZ

Geometry recognized as XYZ



 Recomputing integrals since basis changed


 Using spherical harmonics

 Library entry O      S aug-cc-pVTZ          selected for orbital group  1
 Library entry O      P aug-cc-pVTZ          selected for orbital group  1
 Library entry O      D aug-cc-pVTZ          selected for orbital group  1
 Library entry O      F aug-cc-pVTZ          selected for orbital group  1
 Library entry H      S aug-cc-pVTZ          selected for orbital group  2
 Library entry H      P aug-cc-pVTZ          selected for orbital group  2
 Library entry H      D aug-cc-pVTZ          selected for orbital group  2
 Library entry C      S aug-cc-pVTZ          selected for orbital group  3
 Library entry C      P aug-cc-pVTZ          selected for orbital group  3
 Library entry C      D aug-cc-pVTZ          selected for orbital group  3
 Library entry C      F aug-cc-pVTZ          selected for orbital group  3

1PROGRAM * SEWARD (Integral evaluation for generally contracted gaussian basis sets)     Author: Roland Lindh, 1990

 Geometry written to block  1 of record 700


 Point group  C2v 



 ATOMIC COORDINATES

 NR  ATOM    CHARGE       X              Y              Z

   1  O       8.00    0.006632939    2.196063965    0.000000000
   2  O       8.00    0.006632939   -2.196063965    0.000000000
   3  O       8.00    9.296847854    0.000000000    0.000000000
   4  H       1.00   10.404639328    0.000000000    1.433415852
   5  H       1.00   10.404639328    0.000000000   -1.433415852
   6  C       6.00    0.037189810    0.000000000    0.000000000

 Bond lengths in Bohr (Angstrom)

 1-6  2.196276545  2-6  2.196276545  3-4  1.811596797  3-5  1.811596797
     (1.162219492)     (1.162219492)     (0.958655737)     (0.958655737)

 Bond angles

  1-6-2  178.40563223   4-3-5  104.60391356

 NUCLEAR CHARGE:                   32
 NUMBER OF PRIMITIVE AOS:         322
 NUMBER OF SYMMETRY AOS:          282
 NUMBER OF CONTRACTIONS:          230   (  84A1  +  59B1  +  54B2  +  33A2  )
 NUMBER OF CORE ORBITALS:           4   (   3A1  +   1B1  +   0B2  +   0A2  )
 NUMBER OF VALENCE ORBITALS:       18   (   8A1  +   5B1  +   4B2  +   1A2  )


 NUCLEAR REPULSION ENERGY   90.18549220


 Eigenvalues of metric

         1 0.359E-03 0.387E-03 0.898E-03 0.166E-02 0.313E-02 0.320E-02 0.393E-02 0.428E-02
         2 0.349E-03 0.921E-03 0.175E-02 0.337E-02 0.564E-02 0.743E-02 0.178E-01 0.209E-01
         3 0.390E-03 0.165E-02 0.318E-02 0.488E-02 0.621E-02 0.992E-02 0.135E-01 0.154E-01
         4 0.348E-02 0.124E-01 0.296E-01 0.363E-01 0.560E-01 0.679E-01 0.110E+00 0.140E+00


 Contracted 2-electron integrals neglected if value below      1.0D-11
 AO integral compression algorithm  1   Integral accuracy      1.0D-11

     261.095 MB (compressed) written to integral file ( 29.3%)

     Node minimum: 79.430 MB, node maximum: 95.683 MB


 NUMBER OF SORTED TWO-ELECTRON INTEGRALS:   29979201.     BUFFER LENGTH:  32768
 NUMBER OF SEGMENTS:   2  SEGMENT LENGTH:   15996954      RECORD LENGTH: 524288

 Memory used in sort:      16.55 MW

 SORT1 READ   111383388. AND WROTE    18452115. INTEGRALS IN     54 RECORDS. CPU TIME:     2.14 SEC, REAL TIME:     2.37 SEC
 SORT2 READ    55500446. AND WROTE    89930217. INTEGRALS IN    909 RECORDS. CPU TIME:     0.56 SEC, REAL TIME:     0.73 SEC

 Node minimum:    29974277.  Node maximum:    29979201. integrals

 OPERATOR DM      FOR CENTER  0  COORDINATES:    0.000000    0.000000    0.000000


 **********************************************************************************************************************************
 DATASETS  * FILE   NREC   LENGTH (MB)   RECORD NAMES
              1      18        3.23       500      610      700      900      950      970     1000      129      960     1100   
                                          VAR    BASINP    GEOM    SYMINP    ZMAT    AOBASIS   BASIS     P2S    ABASIS      S 
                                         1400     1410     1200     1210     1080     1600     1650     1700   
                                           T        V       H0       H01     AOSYM     SMH    MOLCAS    OPER   

 PROGRAMS   *        TOTAL       INT
 CPU TIMES  *         4.65      4.58
 REAL TIME  *         5.17 SEC
 DISK USED  *       920.64 MB      
 GA USED    *         0.00 MB       (max)       0.00 MB       (current)
 **********************************************************************************************************************************

1PROGRAM * RHF-SCF (CLOSED SHELL)       Authors: W. Meyer, H.-J. Werner


 NUMBER OF ELECTRONS:      16+   16-
 CONVERGENCE THRESHOLDS:    1.00E-05 (Density)    1.00E-07 (Energy)
 MAX. NUMBER OF ITERATIONS:       60
 INTERPOLATION TYPE:            DIIS
 INTERPOLATION STEPS:              2 (START)      1 (STEP)
 LEVEL SHIFTS:                  0.00 (CLOSED)  0.00 (OPEN) 



 Orbital guess generated from atomic densities. Full valence occupancy:   11   6   4   1

 Molecular orbital dump at record        2100.2

 Initial alpha occupancy:   8   5   2   1
 Initial beta  occupancy:   8   5   2   1
 Wave function symmetry:    1

 ITERATION    DDIFF          GRAD             ENERGY        2-EL.EN.            DIPOLE MOMENTS         DIIS
    1      0.000D+00      0.000D+00      -263.66148720    376.222069    1.18074    0.00000    0.00000    0
    2      0.000D+00      0.886D-02      -263.72657764    371.552483    0.71734    0.00000    0.00000    1
    3      0.142D-01      0.600D-02      -263.76943317    374.122155    0.83020    0.00000    0.00000    2
    4      0.585D-02      0.568D-03      -263.76992817    373.914012    0.83342    0.00000    0.00000    3
    5      0.695D-03      0.165D-03      -263.76998628    373.913732    0.82831    0.00000    0.00000    4
    6      0.259D-03      0.670D-04      -263.76999352    373.928773    0.82907    0.00000    0.00000    5
    7      0.859D-04      0.163D-04      -263.76999425    373.920305    0.82864    0.00000    0.00000    6
    8      0.281D-04      0.359D-05      -263.76999430    373.921618    0.82865    0.00000    0.00000    7
    9      0.768D-05      0.121D-05      -263.76999430    373.921414    0.82862    0.00000    0.00000    0

 Final occupancy:   8   5   2   1

 !RHF STATE 1.1 Energy               -263.769994301330
 Nuclear energy                        90.18549220
 One-electron energy                 -540.91619344
 Two-electron energy                  186.96070694
 Virial quotient                       -1.00183306
 !RHF STATE 1.1 Dipole moment           0.82861714     0.00000000     0.00000000
 Dipole moment /Debye                   2.10599675     0.00000000     0.00000000

 Orbital energies:

         1.1          2.1          3.1          4.1          5.1          6.1          7.1          8.1          9.1         10.1
    -20.645106   -20.569896   -11.454083    -1.522761    -1.355327    -0.793215    -0.706657    -0.587348     0.027813     0.057494

         1.2          2.2          3.2          4.2          5.2          6.2          7.2
    -20.645151    -1.469711    -0.735500    -0.536508    -0.512780     0.084775     0.150303

         1.3          2.3          3.3          4.3
     -0.719768    -0.706933     0.046130     0.082536

         1.4          2.4          3.4
     -0.536646     0.168995     0.264283


 **********************************************************************************************************************************
 DATASETS  * FILE   NREC   LENGTH (MB)   RECORD NAMES
              1      18        3.25       500      610      700      900      950      970     1000      129      960     1100   
                                          VAR    BASINP    GEOM    SYMINP    ZMAT    AOBASIS   BASIS     P2S    ABASIS      S 
                                         1400     1410     1200     1210     1080     1600     1650     1700   
                                           T        V       H0       H01     AOSYM     SMH    MOLCAS    OPER   

              2       3        0.67       700     1000     2100   
                                         GEOM     BASIS     RHF  

 PROGRAMS   *        TOTAL        HF       INT
 CPU TIMES  *         6.03      1.38      4.58
 REAL TIME  *         6.65 SEC
 DISK USED  *       938.03 MB      
 SF USED    *         0.06 MB      
 GA USED    *         0.00 MB       (max)       0.00 MB       (current)
 **********************************************************************************************************************************


1PROGRAM * CCSD (Closed-shell coupled cluster)     Authors: C. Hampel, H.-J. Werner, 1991, M. Deegan, P.J. Knowles, 1992

                                  CCSD-F12 implementation by  H.-J. Werner, 2007

                   Density fitting integral evaluation by F.R. Manby, 2003,2007, G. Knizia, 2010

 Basis set CC-PVTZ/JKFIT generated.      Number of basis functions:   376 
 Basis set AUG-CC-PVTZ/MP2FIT generated. Number of basis functions:   516 

 Convergence thresholds:  THRVAR = 1.00D-08  THRDEN = 1.00D-06

 CCSD(T)     terms to be evaluated (factor= 1.000)


 Number of core orbitals:           4 (   3   1   0   0 )
 Number of closed-shell orbitals:  12 (   5   4   2   1 )
 Number of external orbitals:     214 (  76  54  52  32 )

 Molecular orbitals read from record     2100.2  Type=RHF/CANONICAL (state 1.1)

 MP2-F12 correlation treatment (H.-J. Werner, 2006)
 --------------------------------------------------

 Using MP2-F12 with ansatz 3C(FIX)

 Using projected zeroth-order Hamiltonian (+Z)

 FOCKRIB=T FOCKRIC=T FOCKRIP=T CABSP=T CABSA=T CABSK=T CABSF=T GBC=F EBC=F DMAT=T NOFIK=T NOPAO=1 SOLVE=-1  USEPAO=0
 EXCH_A= T EXCH_B= F EXCH_C= F EXCH_P= F
 
 Geminal basis:    OPTFULL  GEM_TYPE=SLATER  BETA=1.0  NGEM=6

 Optimizing Gaussian exponents for each gem_beta

 Geminal optimization for beta= 1.0000
 Weight function:   m=0, omega= 1.4646

 Augmented Hessian optimization of geminal fit. Trust ratio= 0.40000
 Convergence reached after   2 iterations. Final gradient= 8.24D-16, Step= 4.32D-06, Delta= 1.28D-09
 
 Alpha:                 0.19532     0.81920     2.85917     9.50073    35.69989   197.79328
 Coeff:                 0.27070     0.30552     0.18297     0.10986     0.06810     0.04224
 

 Symmetry turned off. Reference energy:       -263.769994301330

 All pairs explicitly correlated. Number of r12-pairs:           78
 
 AO(A)-basis ORBITAL           loaded. Number of functions:     230
 RI(R)-basis CC-PVTZ/JKFIT     loaded. Number of functions:     376
 DF-basis CC-PVTZ/JKFIT        loaded. Number of functions:     376

 Screening thresholds:   THRAO=  1.00D-10  THRMO=  1.00D-09  THRPROD=  1.00D-09
                         THRSW=  1.00D-05  THROV=  1.00D-12  THRF12=   1.00D-08

 CPU time for Fock operators                      0.95 sec
 
 Construction of ABS:
 Smallest eigenvalue of S          2.57E-04  (threshold= 1.00E-08)
 Ratio eigmin/eigmax               1.83E-06  (threshold= 1.00E-09)
 Smallest eigenvalue of S kept     2.57E-04  (threshold= 2.57E-04, 0 functions deleted, 376 kept)
 
 Construction of CABS:
 Smallest eigenvalue of S          2.30E-08  (threshold= 1.00E-08)
 Ratio eigmin/eigmax               2.30E-08  (threshold= 1.00E-09)
 Smallest eigenvalue of S kept     2.30E-08  (threshold= 2.30E-08, 0 functions deleted, 376 kept)
 
 CPU time for CABS singles                        0.17 sec

 CABS-singles contribution of  -0.01592078 patched into reference energy.
 New reference energy        -263.78591509
 
 AO(A)-basis ORBITAL           loaded. Number of functions:     230
 RI(R)-basis CC-PVTZ/JKFIT     loaded. Number of functions:     376
 DF-basis AUG-CC-PVTZ/MP2FIT   loaded. Number of functions:     516

 Screening thresholds:   THRAO=  1.00D-10  THRMO=  1.00D-09  THRPROD=  1.00D-09
                         THRSW=  1.00D-05  THROV=  1.00D-12  THRF12=   1.00D-08

 CPU time for 3-index integral evaluation         2.37 sec
 CPU time for first  half transformation          0.24 sec (12251.4 MFLOP/sec)
 CPU time for second half transformation          0.06 sec ( 1671.6 MFLOP/sec)
 CPU time for sorting                             0.14 sec
 CPU time for fitting                             0.05 sec (27861.0 MFLOP/sec)
 CPU time for tilde quantities                    0.08 sec (23111.0 MFLOP/sec)
 CPU time for assembly                            0.78 sec (30063.2 MFLOP/sec)
 CPU time for tranop_f12                          0.91 sec (32981.2 MFLOP/sec)
 CPU time for f12 integrals (total)               6.69 sec
 F12-matrices built in  3 passes.
 F12-matrices built in  3 passes.
 F12-matrices built in  3 passes.
 F12-matrices built in  3 passes.
 FC-matrix built in  3 passes.
 CPU time for f12 matrices (total)                0.48 sec

 Diagonal F12 approximation with fixed coefficients:  TSING= 0.500,  TTRIP= 0.250 (scaled by -1/beta)

 DF-MP2-F12 energy corrections:
 ------------------------------
 Approx.                                    Singlet             Triplet             Total
 DF-MP2-F12/3*C(DX,FIX)                -0.097437757699     -0.016931784345     -0.114369542044
 DF-MP2-F12/3*C(FIX)                   -0.079856098900     -0.013394270579     -0.093250369479
 DF-MP2-F12/3C(FIX)                    -0.080217722060     -0.013418005605     -0.093635727666

 DF-MP2-F12 correlation energies:
 --------------------------------
 Approx.                                    Singlet             Triplet             Ecorr            Total Energy
 DF-MP2                                -0.537713027054     -0.343101529053     -0.880814556107   -264.666729642365
 DF-MP2-F12/3*C(DX,FIX)                -0.635150784753     -0.360033313398     -0.995184098151   -264.781099184409
 DF-MP2-F12/3*C(FIX)                   -0.617569125955     -0.356495799631     -0.974064925586   -264.759980011843
 DF-MP2-F12/3C(FIX)                    -0.617930749115     -0.356519534658     -0.974450283773   -264.760365370031

 SCS-DF-MP2 energies (F_SING= 1.20000  F_TRIP= 0.62222  F_PARALLEL= 0.33333):
 ----------------------------------------------------------------------------
 SCS-DF-MP2                            -0.858741028320   -264.644656114578
 SCS-DF-MP2-F12/3*C(DX,FIX)            -0.986201670040   -264.772116756298
 SCS-DF-MP2-F12/3*C(FIX)               -0.962902559805   -264.748817646063
 SCS-DF-MP2-F12/3C(FIX)                -0.963351276058   -264.749266362316

 Symmetry restored.
 Symmetry transformation completed.

 Number of N-1 electron functions:              12
 Number of N-2 electron functions:              78
 Number of singly external CSFs:               732
 Number of doubly external CSFs:            836016
 Total number of CSFs:                      836749

 Pair and operator lists are different

 Length of J-op  integral file:             462.26 MB
 Length of K-op  integral file:             502.03 MB
 Length of 3-ext integral record:             0.00 MB

 Memory could be reduced to 38.69 Mwords without degradation in triples

 Integral transformation finished. Total CPU:   1.43 sec, npass=  1  Memory used:   6.07 MW

 Reference energy:                   -263.78591509

 Adding F12 terms to K(Cij), methodcc=6,  factor=1.0

 ITER.      SQ.NORM     CORR.ENERGY   TOTAL ENERGY   ENERGY CHANGE        DEN1      VAR(S)    VAR(P)  DIIS     TIME
   1      1.20213284    -0.86277318  -264.64868827     0.01805755     0.04667347  0.72D-02  0.56D-02  1  1    11.02
   2      1.21644166    -0.85855418  -264.64446926     0.00421901    -0.02014460  0.87D-04  0.59D-03  2  2    11.97
   3      1.22180493    -0.85865208  -264.64456716    -0.00009790    -0.00236528  0.13D-03  0.32D-04  3  3    12.96
   4      1.22460862    -0.85852445  -264.64443954     0.00012763    -0.00141175  0.76D-05  0.41D-05  4  4    13.97
   5      1.22563916    -0.85848682  -264.64440190     0.00003763    -0.00036633  0.56D-06  0.29D-06  5  5    14.96
   6      1.22580143    -0.85845995  -264.64437503     0.00002687    -0.00000806  0.40D-07  0.24D-07  6  6    15.93
   7      1.22583082    -0.85845753  -264.64437261     0.00000242    -0.00000622  0.25D-08  0.40D-08  6  4    16.91
   8      1.22583112    -0.85845703  -264.64437212     0.00000049     0.00000194  0.39D-09  0.27D-09  6  1    17.88
   9      1.22583174    -0.85845710  -264.64437219    -0.00000007     0.00000056  0.26D-10  0.21D-10  6  2    18.87

 Norm of t1 vector:      0.10598613      S-energy:    -0.00000003      T1 diagnostic:  0.01529778
                                                                       D1 diagnostic:  0.04500260

 Adding energy correction from Wij-K(Fij), methodcc=6  factor=1.0
 
  CCSD correlation energy              -0.858457101141
  MP2-F12 correction (uncoupled)       -0.092478711194
  C*T doubles correction               -0.001474959933
  f12b correction                       0.015406079548


 Total CPU time for triples:     25.14 sec


 RESULTS
 =======

  Reference energy                   -263.769994301330
  F12 singles correction               -0.015920784928

 F12 singles corrections added to reference energy

  New reference energy               -263.785915086258

  F12a singlet correction              -0.080417270927
  F12a triplet correction              -0.013536400201
  F12a total correction                -0.093953671128

 F12a corrections for ansatz F12/3C(FIX) added to CCSD energy
 
  CCSD-F12a singlet pair energy        -0.641865436327
  CCSD-F12a triplet pair energy        -0.310545307601
  CCSD-F12a correlation energy         -0.952410772269

  Triples (T) contribution             -0.037644338268
  Total correlation energy             -0.990055110537

  CCSD-F12a total energy             -264.738325858527
  CCSD[T]-F12a energy                -264.778512262095
  CCSD-T-F12a energy                 -264.775033629792
 !CCSD(T)-F12a total energy          -264.775970196795

 F12b corrections for ansatz F12/3C(FIX) added to CCSD(T)-F12a energy

  CCSD-F12b singlet pair energy        -0.627682717696
  CCSD-F12b triplet pair energy        -0.309321946684
  CCSD-F12b correlation energy         -0.937004692721

  Triples (T) contribution             -0.037644338268
  Total correlation energy             -0.974649030990

  CCSD-F12b total energy             -264.722919778979
  CCSD[T]-F12b energy                -264.763106182547
  CCSD-T-F12b energy                 -264.759627550244
 !CCSD(T)-F12b total energy          -264.760564117247

 Timing summary (sec):

 STEP                 CPU(USER)    SYS     CPU(TOT)    WALL
 Transformation          1.43      0.22      1.65      1.65
 CCSD iterations         8.76      0.65      9.41      9.41
 Triples                25.14      0.75     25.89     25.98
 MP2-F12                 8.68      1.11      9.79      9.79
 F12b energy             0.60      0.01      0.61      0.62

 Program statistics:

 Available memory in ccsd:                99998934
 Min. memory needed in ccsd:               2244783
 Max. memory used in ccsd:                 3005571
 Max. memory used in cckext:               2769663 (10 integral passes)



 **********************************************************************************************************************************
 DATASETS  * FILE   NREC   LENGTH (MB)   RECORD NAMES
              1      20      137.19       500      610      700      900      950      970     1000      129      960     1100   
                                          VAR    BASINP    GEOM    SYMINP    ZMAT    AOBASIS   BASIS     P2S    ABASIS      S 
                                         1400     1410     1200     1210     1080     1600     1650     1700      960(1)  1380   
                                           T        V       H0       H01     AOSYM     SMH    MOLCAS    OPER    ABASIS    JKOP   

              2       5        0.97       700     1000     2100     7360     7350   
                                         GEOM     BASIS     RHF    F12ABS    EF12   

 PROGRAMS   *        TOTAL   CCSD(T)        HF       INT
 CPU TIMES  *        50.86     44.82      1.38      4.58
 REAL TIME  *        54.34 SEC
 DISK USED  *         1.16 GB      
 SF USED    *         1.34 GB      
 GA USED    *         2.40 MB       (max)       0.00 MB       (current)
 **********************************************************************************************************************************

     CCSD(T)-F12        HF-SCF  
   -264.76056412   -263.76999430
 **********************************************************************************************************************************
 Variable memory released
