
 Primary working directories    : /scratch/kee
 Secondary working directories  : /scratch/kee
 Wavefunction directory         : /home/kee/wfu/
 Main file repository           : /scratch/kee/

 ARCHNAME  : Linux/x86_64
 FC        : /opt/intel/composer_xe_2015.0.090/bin/intel64/ifort
 FCVERSION : 15.0.0
 BLASLIB   : -L/opt/intel/mkl/lib/intel64 -lmkl_intel_ilp64 -lmkl_sequential -lmkl_core
 id        : emory

 Nodes     nprocs
 node24       3
 Number of processes for MPI-2 version of Molpro:   nprocs(total)=    4   nprocs(compute)=    3   nprocs(helper)=    1
 ga_uses_ma=false, calling ma_init with nominal heap.
 GA-space will be limited to   8.0 MW (determined by -G option)

 Using customized tuning parameters: mindgm=7; mindgv=32; mindgc=1; mindgr=1; noblas=0; mincuda=1000; minvec=7
 default implementation of scratch files=sf  

 ***,co2h2o
 memory,100,m
 basis avtz
 geomtype = xyz
 geometry = {
 6
       0.00000000
 O     0.01288800    1.16233300    0.00000000
 O     0.01288800   -1.16233300    0.00000000
 O     4.20363900    0.00000000    0.00000000
 H     3.62249900    0.76306800    0.00000000
 H     3.62249900   -0.76306800    0.00000000
 C     0.00363900    0.00000000    0.00000000
 }
 hf
 ccsd(t)-f12
 ---

 Variables initialized (665), CPU time= 0.00 sec
 Commands  initialized (462), CPU time= 0.01 sec, 486 directives.
 Default parameters read. Elapsed time= 0.03 sec

 Checking input...
 Passed
1


                                         ***  PROGRAM SYSTEM MOLPRO  ***
                         Copyright, University College Cardiff Consultants Limited, 2008

                                    Version 2010.1 linked 9 Dec 2014 15:06:28 


 **********************************************************************************************************************************
 LABEL *   co2h2o                                                                        
 Linux-2.6.32-504.el6.x86_64/node24(x86_64) 64 bit mpp version                           DATE: 15-Dec-16          TIME: 00:24:28  
 **********************************************************************************************************************************

 Patch level:      19
 **********************************************************************************************************************************

 Variable memory set to  100000000 words,  buffer space   230000 words

 SETTING BASIS          =    AVTZ
 SETTING GEOMTYPE       =    XYZ

Geometry recognized as XYZ



 Recomputing integrals since basis changed


 Using spherical harmonics

 Library entry O      S aug-cc-pVTZ          selected for orbital group  1
 Library entry O      P aug-cc-pVTZ          selected for orbital group  1
 Library entry O      D aug-cc-pVTZ          selected for orbital group  1
 Library entry O      F aug-cc-pVTZ          selected for orbital group  1
 Library entry H      S aug-cc-pVTZ          selected for orbital group  2
 Library entry H      P aug-cc-pVTZ          selected for orbital group  2
 Library entry H      D aug-cc-pVTZ          selected for orbital group  2
 Library entry C      S aug-cc-pVTZ          selected for orbital group  3
 Library entry C      P aug-cc-pVTZ          selected for orbital group  3
 Library entry C      D aug-cc-pVTZ          selected for orbital group  3
 Library entry C      F aug-cc-pVTZ          selected for orbital group  3

1PROGRAM * SEWARD (Integral evaluation for generally contracted gaussian basis sets)     Author: Roland Lindh, 1990

 Geometry written to block  1 of record 700


 Point group  C2v 



 ATOMIC COORDINATES

 NR  ATOM    CHARGE       X              Y              Z

   1  O       8.00    0.024354790    2.196491044    0.000000000
   2  O       8.00    0.024354790   -2.196491044    0.000000000
   3  O       8.00    7.943726465    0.000000000    0.000000000
   4  H       1.00    6.845531021    1.441989540    0.000000000
   5  H       1.00    6.845531021   -1.441989540    0.000000000
   6  C       6.00    0.006876713    0.000000000    0.000000000

 Bond lengths in Bohr (Angstrom)

 1-6  2.196560581  2-6  2.196560581  3-4  1.812558155  3-5  1.812558155
     (1.162369798)     (1.162369798)     (0.959164466)     (0.959164466)

 Bond angles

  1-6-2  179.08818302   4-3-5  105.41539946

 NUCLEAR CHARGE:                   32
 NUMBER OF PRIMITIVE AOS:         322
 NUMBER OF SYMMETRY AOS:          282
 NUMBER OF CONTRACTIONS:          230   (  84A1  +  68B1  +  45B2  +  33A2  )
 NUMBER OF CORE ORBITALS:           4   (   3A1  +   1B1  +   0B2  +   0A2  )
 NUMBER OF VALENCE ORBITALS:       18   (   8A1  +   6B1  +   3B2  +   1A2  )


 NUCLEAR REPULSION ENERGY   95.18810731


 Eigenvalues of metric

         1 0.330E-03 0.369E-03 0.890E-03 0.137E-02 0.252E-02 0.319E-02 0.349E-02 0.415E-02
         2 0.319E-03 0.383E-03 0.869E-03 0.161E-02 0.172E-02 0.298E-02 0.440E-02 0.562E-02
         3 0.316E-02 0.540E-02 0.135E-01 0.284E-01 0.315E-01 0.356E-01 0.588E-01 0.637E-01
         4 0.346E-02 0.122E-01 0.295E-01 0.358E-01 0.553E-01 0.672E-01 0.108E+00 0.140E+00


 Contracted 2-electron integrals neglected if value below      1.0D-11
 AO integral compression algorithm  1   Integral accuracy      1.0D-11

     344.982 MB (compressed) written to integral file ( 38.4%)

     Node minimum: 108.528 MB, node maximum: 119.800 MB


 NUMBER OF SORTED TWO-ELECTRON INTEGRALS:   30156294.     BUFFER LENGTH:  32768
 NUMBER OF SEGMENTS:   2  SEGMENT LENGTH:   15999663      RECORD LENGTH: 524288

 Memory used in sort:      16.56 MW

 SORT1 READ   112167128. AND WROTE    24259130. INTEGRALS IN     70 RECORDS. CPU TIME:     2.27 SEC, REAL TIME:     2.55 SEC
 SORT2 READ    73406604. AND WROTE    90461370. INTEGRALS IN   1371 RECORDS. CPU TIME:     0.63 SEC, REAL TIME:     0.83 SEC

 Node minimum:    30151286.  Node maximum:    30156294. integrals

 OPERATOR DM      FOR CENTER  0  COORDINATES:    0.000000    0.000000    0.000000


 **********************************************************************************************************************************
 DATASETS  * FILE   NREC   LENGTH (MB)   RECORD NAMES
              1      18        3.24       500      610      700      900      950      970     1000      129      960     1100   
                                          VAR    BASINP    GEOM    SYMINP    ZMAT    AOBASIS   BASIS     P2S    ABASIS      S 
                                         1400     1410     1200     1210     1080     1600     1650     1700   
                                           T        V       H0       H01     AOSYM     SMH    MOLCAS    OPER   

 PROGRAMS   *        TOTAL       INT
 CPU TIMES  *         5.45      5.39
 REAL TIME  *         6.08 SEC
 DISK USED  *         1.21 GB      
 GA USED    *         0.00 MB       (max)       0.00 MB       (current)
 **********************************************************************************************************************************

1PROGRAM * RHF-SCF (CLOSED SHELL)       Authors: W. Meyer, H.-J. Werner


 NUMBER OF ELECTRONS:      16+   16-
 CONVERGENCE THRESHOLDS:    1.00E-05 (Density)    1.00E-07 (Energy)
 MAX. NUMBER OF ITERATIONS:       60
 INTERPOLATION TYPE:            DIIS
 INTERPOLATION STEPS:              2 (START)      1 (STEP)
 LEVEL SHIFTS:                  0.00 (CLOSED)  0.00 (OPEN) 



 Orbital guess generated from atomic densities. Full valence occupancy:   11   7   3   1

 Molecular orbital dump at record        2100.2

 Initial alpha occupancy:   8   5   2   1
 Initial beta  occupancy:   8   5   2   1
 Wave function symmetry:    1

 ITERATION    DDIFF          GRAD             ENERGY        2-EL.EN.            DIPOLE MOMENTS         DIIS
    1      0.000D+00      0.000D+00      -263.65872002    384.937766   -1.15528    0.00000    0.00000    0
    2      0.000D+00      0.885D-02      -263.72422755    380.830848   -0.69945    0.00000    0.00000    1
    3      0.142D-01      0.604D-02      -263.76845746    383.277242   -0.81179    0.00000    0.00000    2
    4      0.586D-02      0.562D-03      -263.76895398    383.056260   -0.81423    0.00000    0.00000    3
    5      0.691D-03      0.163D-03      -263.76901188    383.065367   -0.80917    0.00000    0.00000    4
    6      0.256D-03      0.651D-04      -263.76901888    383.078842   -0.80985    0.00000    0.00000    5
    7      0.842D-04      0.163D-04      -263.76901961    383.070857   -0.80937    0.00000    0.00000    6
    8      0.280D-04      0.356D-05      -263.76901966    383.072148   -0.80936    0.00000    0.00000    7
    9      0.768D-05      0.118D-05      -263.76901966    383.071988   -0.80933    0.00000    0.00000    0

 Final occupancy:   8   5   2   1

 !RHF STATE 1.1 Energy               -263.769019663699
 Nuclear energy                        95.18810731
 One-electron energy                 -550.49312107
 Two-electron energy                  191.53599409
 Virial quotient                       -1.00183765
 !RHF STATE 1.1 Dipole moment          -0.80933037     0.00000000     0.00000000
 Dipole moment /Debye                  -2.05697787     0.00000000     0.00000000

 Orbital energies:

         1.1          2.1          3.1          4.1          5.1          6.1          7.1          8.1          9.1         10.1
    -20.664501   -20.570532   -11.473209    -1.542058    -1.355394    -0.812139    -0.726481    -0.586040     0.029569     0.056334

         1.2          2.2          3.2          4.2          5.2          6.2          7.2
    -20.664546    -1.488968    -0.754298    -0.721751    -0.555906     0.050715     0.086824

         1.3          2.3          3.3          4.3
     -0.725943    -0.513195     0.067833     0.162303

         1.4          2.4          3.4
     -0.555604     0.156039     0.273270


 **********************************************************************************************************************************
 DATASETS  * FILE   NREC   LENGTH (MB)   RECORD NAMES
              1      18        3.25       500      610      700      900      950      970     1000      129      960     1100   
                                          VAR    BASINP    GEOM    SYMINP    ZMAT    AOBASIS   BASIS     P2S    ABASIS      S 
                                         1400     1410     1200     1210     1080     1600     1650     1700   
                                           T        V       H0       H01     AOSYM     SMH    MOLCAS    OPER   

              2       3        0.68       700     1000     2100   
                                         GEOM     BASIS     RHF  

 PROGRAMS   *        TOTAL        HF       INT
 CPU TIMES  *         6.88      1.43      5.39
 REAL TIME  *         7.64 SEC
 DISK USED  *         1.23 GB      
 SF USED    *         0.06 MB      
 GA USED    *         0.00 MB       (max)       0.00 MB       (current)
 **********************************************************************************************************************************


1PROGRAM * CCSD (Closed-shell coupled cluster)     Authors: C. Hampel, H.-J. Werner, 1991, M. Deegan, P.J. Knowles, 1992

                                  CCSD-F12 implementation by  H.-J. Werner, 2007

                   Density fitting integral evaluation by F.R. Manby, 2003,2007, G. Knizia, 2010

 Basis set CC-PVTZ/JKFIT generated.      Number of basis functions:   376 
 Basis set AUG-CC-PVTZ/MP2FIT generated. Number of basis functions:   516 

 Convergence thresholds:  THRVAR = 1.00D-08  THRDEN = 1.00D-06

 CCSD(T)     terms to be evaluated (factor= 1.000)


 Number of core orbitals:           4 (   3   1   0   0 )
 Number of closed-shell orbitals:  12 (   5   4   2   1 )
 Number of external orbitals:     214 (  76  63  43  32 )

 Molecular orbitals read from record     2100.2  Type=RHF/CANONICAL (state 1.1)

 MP2-F12 correlation treatment (H.-J. Werner, 2006)
 --------------------------------------------------

 Using MP2-F12 with ansatz 3C(FIX)

 Using projected zeroth-order Hamiltonian (+Z)

 FOCKRIB=T FOCKRIC=T FOCKRIP=T CABSP=T CABSA=T CABSK=T CABSF=T GBC=F EBC=F DMAT=T NOFIK=T NOPAO=1 SOLVE=-1  USEPAO=0
 EXCH_A= T EXCH_B= F EXCH_C= F EXCH_P= F
 
 Geminal basis:    OPTFULL  GEM_TYPE=SLATER  BETA=1.0  NGEM=6

 Optimizing Gaussian exponents for each gem_beta

 Geminal optimization for beta= 1.0000
 Weight function:   m=0, omega= 1.4646

 Augmented Hessian optimization of geminal fit. Trust ratio= 0.40000
 Convergence reached after   2 iterations. Final gradient= 8.24D-16, Step= 4.32D-06, Delta= 1.28D-09
 
 Alpha:                 0.19532     0.81920     2.85917     9.50073    35.69989   197.79328
 Coeff:                 0.27070     0.30552     0.18297     0.10986     0.06810     0.04224
 

 Symmetry turned off. Reference energy:       -263.769019663699

 All pairs explicitly correlated. Number of r12-pairs:           78
 
 AO(A)-basis ORBITAL           loaded. Number of functions:     230
 RI(R)-basis CC-PVTZ/JKFIT     loaded. Number of functions:     376
 DF-basis CC-PVTZ/JKFIT        loaded. Number of functions:     376

 Screening thresholds:   THRAO=  1.00D-10  THRMO=  1.00D-09  THRPROD=  1.00D-09
                         THRSW=  1.00D-05  THROV=  1.00D-12  THRF12=   1.00D-08

 CPU time for Fock operators                      0.93 sec
 
 Construction of ABS:
 Smallest eigenvalue of S          2.55E-04  (threshold= 1.00E-08)
 Ratio eigmin/eigmax               1.81E-06  (threshold= 1.00E-09)
 Smallest eigenvalue of S kept     2.55E-04  (threshold= 2.55E-04, 0 functions deleted, 376 kept)
 
 Construction of CABS:
 Smallest eigenvalue of S          2.27E-08  (threshold= 1.00E-08)
 Ratio eigmin/eigmax               2.27E-08  (threshold= 1.00E-09)
 Smallest eigenvalue of S kept     2.27E-08  (threshold= 2.27E-08, 0 functions deleted, 376 kept)
 
 CPU time for CABS singles                        0.16 sec

 CABS-singles contribution of  -0.01591564 patched into reference energy.
 New reference energy        -263.78493530
 
 AO(A)-basis ORBITAL           loaded. Number of functions:     230
 RI(R)-basis CC-PVTZ/JKFIT     loaded. Number of functions:     376
 DF-basis AUG-CC-PVTZ/MP2FIT   loaded. Number of functions:     516

 Screening thresholds:   THRAO=  1.00D-10  THRMO=  1.00D-09  THRPROD=  1.00D-09
                         THRSW=  1.00D-05  THROV=  1.00D-12  THRF12=   1.00D-08

 CPU time for 3-index integral evaluation         2.76 sec
 CPU time for first  half transformation          0.22 sec (12547.9 MFLOP/sec)
 CPU time for second half transformation          0.02 sec ( 5347.4 MFLOP/sec)
 CPU time for sorting                             0.14 sec
 CPU time for fitting                             0.04 sec (34826.3 MFLOP/sec)
 CPU time for tilde quantities                    0.04 sec (46222.0 MFLOP/sec)
 CPU time for assembly                            0.78 sec (30451.4 MFLOP/sec)
 CPU time for tranop_f12                          0.90 sec (33579.5 MFLOP/sec)
 CPU time for f12 integrals (total)               6.84 sec
 F12-matrices built in  3 passes.
 F12-matrices built in  3 passes.
 F12-matrices built in  3 passes.
 F12-matrices built in  3 passes.
 FC-matrix built in  3 passes.
 CPU time for f12 matrices (total)                0.47 sec

 Diagonal F12 approximation with fixed coefficients:  TSING= 0.500,  TTRIP= 0.250 (scaled by -1/beta)

 DF-MP2-F12 energy corrections:
 ------------------------------
 Approx.                                    Singlet             Triplet             Total
 DF-MP2-F12/3*C(DX,FIX)                -0.097365813750     -0.016924670059     -0.114290483809
 DF-MP2-F12/3*C(FIX)                   -0.079789045993     -0.013390449444     -0.093179495437
 DF-MP2-F12/3C(FIX)                    -0.080155267771     -0.013416931095     -0.093572198866

 DF-MP2-F12 correlation energies:
 --------------------------------
 Approx.                                    Singlet             Triplet             Ecorr            Total Energy
 DF-MP2                                -0.538029680600     -0.343526943155     -0.881556623755   -264.666491927233
 DF-MP2-F12/3*C(DX,FIX)                -0.635395494351     -0.360451613213     -0.995847107564   -264.780782411042
 DF-MP2-F12/3*C(FIX)                   -0.617818726593     -0.356917392599     -0.974736119192   -264.759671422670
 DF-MP2-F12/3C(FIX)                    -0.618184948371     -0.356943874250     -0.975128822621   -264.760064126099

 SCS-DF-MP2 energies (F_SING= 1.20000  F_TRIP= 0.62222  F_PARALLEL= 0.33333):
 ----------------------------------------------------------------------------
 SCS-DF-MP2                            -0.859385714683   -264.644321018161
 SCS-DF-MP2-F12/3*C(DX,FIX)            -0.986755596998   -264.771690900476
 SCS-DF-MP2-F12/3*C(FIX)               -0.963464405085   -264.748399708563
 SCS-DF-MP2-F12/3C(FIX)                -0.963920348690   -264.748855652168

 Symmetry restored.
 Symmetry transformation completed.

 Number of N-1 electron functions:              12
 Number of N-2 electron functions:              78
 Number of singly external CSFs:               750
 Number of doubly external CSFs:            844332
 Total number of CSFs:                      845083

 Pair and operator lists are different

 Length of J-op  integral file:             462.28 MB
 Length of K-op  integral file:             502.25 MB
 Length of 3-ext integral record:             0.00 MB

 Memory could be reduced to 38.71 Mwords without degradation in triples

 Integral transformation finished. Total CPU:   1.51 sec, npass=  1  Memory used:   7.09 MW

 Reference energy:                   -263.78493530

 Adding F12 terms to K(Cij), methodcc=6,  factor=1.0

 ITER.      SQ.NORM     CORR.ENERGY   TOTAL ENERGY   ENERGY CHANGE        DEN1      VAR(S)    VAR(P)  DIIS     TIME
   1      1.20242737    -0.86341605  -264.64835136     0.01815581     0.04687479  0.72D-02  0.56D-02  1  1    11.16
   2      1.21679217    -0.85917102  -264.64410632     0.00424504    -0.02021062  0.87D-04  0.59D-03  2  2    12.11
   3      1.22217413    -0.85926702  -264.64420233    -0.00009601    -0.00236649  0.13D-03  0.33D-04  3  3    13.05
   4      1.22499013    -0.85913742  -264.64407273     0.00012960    -0.00141549  0.77D-05  0.41D-05  4  4    13.99
   5      1.22602662    -0.85909928  -264.64403458     0.00003814    -0.00036786  0.56D-06  0.29D-06  5  5    14.95
   6      1.22619034    -0.85907237  -264.64400767     0.00002691    -0.00000808  0.42D-07  0.24D-07  6  6    15.90
   7      1.22622025    -0.85906991  -264.64400522     0.00000245    -0.00000631  0.27D-08  0.41D-08  6  4    16.86
   8      1.22622072    -0.85906943  -264.64400474     0.00000048     0.00000193  0.42D-09  0.28D-09  6  1    17.81
   9      1.22622136    -0.85906950  -264.64400480    -0.00000007     0.00000057  0.31D-10  0.25D-10  6  2    18.79

 Norm of t1 vector:      0.10625208      S-energy:    -0.00000003      T1 diagnostic:  0.01533617
                                                                       D1 diagnostic:  0.04502482

 Adding energy correction from Wij-K(Fij), methodcc=6  factor=1.0
 
  CCSD correlation energy              -0.859069498075
  MP2-F12 correction (uncoupled)       -0.092411063398
  C*T doubles correction               -0.001475691867
  f12b correction                       0.015403704618


 Total CPU time for triples:     27.32 sec


 RESULTS
 =======

  Reference energy                   -263.769019663699
  F12 singles correction               -0.015915639779

 F12 singles corrections added to reference energy

  New reference energy               -263.784935303478

  F12a singlet correction              -0.080353291495
  F12a triplet correction              -0.013533463770
  F12a total correction                -0.093886755265

 F12a corrections for ansatz F12/3C(FIX) added to CCSD energy
 
  CCSD-F12a singlet pair energy        -0.642068687522
  CCSD-F12a triplet pair energy        -0.310887538933
  CCSD-F12a correlation energy         -0.952956253340

  Triples (T) contribution             -0.037769120170
  Total correlation energy             -0.990725373510

  CCSD-F12a total energy             -264.737891556818
  CCSD[T]-F12a energy                -264.778219882333
  CCSD-T-F12a energy                 -264.774718106512
 !CCSD(T)-F12a total energy          -264.775660676988

 F12b corrections for ansatz F12/3C(FIX) added to CCSD(T)-F12a energy

  CCSD-F12b singlet pair energy        -0.627888459019
  CCSD-F12b triplet pair energy        -0.309664062817
  CCSD-F12b correlation energy         -0.937552548722

  Triples (T) contribution             -0.037769120170
  Total correlation energy             -0.975321668892

  CCSD-F12b total energy             -264.722487852200
  CCSD[T]-F12b energy                -264.762816177715
  CCSD-T-F12b energy                 -264.759314401894
 !CCSD(T)-F12b total energy          -264.760256972370

 Timing summary (sec):

 STEP                 CPU(USER)    SYS     CPU(TOT)    WALL
 Transformation          1.52      0.18      1.70      1.70
 CCSD iterations         8.53      0.63      9.16      9.14
 Triples                27.32      0.87     28.19     28.18
 MP2-F12                 8.76      1.06      9.82      9.82
 F12b energy             0.58      0.02      0.60      0.61

 Program statistics:

 Available memory in ccsd:                99998934
 Min. memory needed in ccsd:               2252999
 Max. memory used in ccsd:                 3011949
 Max. memory used in cckext:               2777209 (10 integral passes)



 **********************************************************************************************************************************
 DATASETS  * FILE   NREC   LENGTH (MB)   RECORD NAMES
              1      20      137.17       500      610      700      900      950      970     1000      129      960     1100   
                                          VAR    BASINP    GEOM    SYMINP    ZMAT    AOBASIS   BASIS     P2S    ABASIS      S 
                                         1400     1410     1200     1210     1080     1600     1650     1700      960(1)  1380   
                                           T        V       H0       H01     AOSYM     SMH    MOLCAS    OPER    ABASIS    JKOP   

              2       5        0.98       700     1000     2100     7360     7350   
                                         GEOM     BASIS     RHF    F12ABS    EF12   

 PROGRAMS   *        TOTAL   CCSD(T)        HF       INT
 CPU TIMES  *        53.61     46.72      1.43      5.39
 REAL TIME  *        57.31 SEC
 DISK USED  *         1.45 GB      
 SF USED    *         1.34 GB      
 GA USED    *         2.40 MB       (max)       0.00 MB       (current)
 **********************************************************************************************************************************

     CCSD(T)-F12        HF-SCF  
   -264.76025697   -263.76901966
 **********************************************************************************************************************************
 Variable memory released
