
 Primary working directories    : /scratch/kee
 Secondary working directories  : /scratch/kee
 Wavefunction directory         : /home/kee/wfu/
 Main file repository           : /scratch/kee/

 ARCHNAME  : Linux/x86_64
 FC        : /opt/intel/composer_xe_2015.0.090/bin/intel64/ifort
 FCVERSION : 15.0.0
 BLASLIB   : -L/opt/intel/mkl/lib/intel64 -lmkl_intel_ilp64 -lmkl_sequential -lmkl_core
 id        : emory

 Nodes     nprocs
 node5        3
 Number of processes for MPI-2 version of Molpro:   nprocs(total)=    4   nprocs(compute)=    3   nprocs(helper)=    1
 ga_uses_ma=false, calling ma_init with nominal heap.
 GA-space will be limited to   8.0 MW (determined by -G option)

 Using customized tuning parameters: mindgm=7; mindgv=32; mindgc=1; mindgr=1; noblas=0; mincuda=1000; minvec=7
 default implementation of scratch files=sf  

 ***,co2h2o
 memory,100,m
 basis avtz
 geomtype = xyz
 geometry = {
 6
       0.00000000
 O     0.00351000    1.16210700    0.00000000
 O     0.00351000   -1.16210700    0.00000000
 O     8.96968000    0.00000000    0.00000000
 H     9.55589800    0.00000000    0.75853100
 H     9.55589800    0.00000000   -0.75853100
 C     0.01968000    0.00000000    0.00000000
 }
 hf
 ccsd(t)-f12
 ---

 Variables initialized (665), CPU time= 0.01 sec
 Commands  initialized (462), CPU time= 0.00 sec, 486 directives.
 Default parameters read. Elapsed time= 0.03 sec

 Checking input...
 Passed
1


                                         ***  PROGRAM SYSTEM MOLPRO  ***
                         Copyright, University College Cardiff Consultants Limited, 2008

                                    Version 2010.1 linked 9 Dec 2014 15:06:28 


 **********************************************************************************************************************************
 LABEL *   co2h2o                                                                        
 Linux-2.6.32-504.el6.x86_64/node5(x86_64) 64 bit mpp version                            DATE: 12-Dec-16          TIME: 14:48:29  
 **********************************************************************************************************************************

 Patch level:      19
 **********************************************************************************************************************************

 Variable memory set to  100000000 words,  buffer space   230000 words

 SETTING BASIS          =    AVTZ
 SETTING GEOMTYPE       =    XYZ

Geometry recognized as XYZ



 Recomputing integrals since basis changed


 Using spherical harmonics

 Library entry O      S aug-cc-pVTZ          selected for orbital group  1
 Library entry O      P aug-cc-pVTZ          selected for orbital group  1
 Library entry O      D aug-cc-pVTZ          selected for orbital group  1
 Library entry O      F aug-cc-pVTZ          selected for orbital group  1
 Library entry H      S aug-cc-pVTZ          selected for orbital group  2
 Library entry H      P aug-cc-pVTZ          selected for orbital group  2
 Library entry H      D aug-cc-pVTZ          selected for orbital group  2
 Library entry C      S aug-cc-pVTZ          selected for orbital group  3
 Library entry C      P aug-cc-pVTZ          selected for orbital group  3
 Library entry C      D aug-cc-pVTZ          selected for orbital group  3
 Library entry C      F aug-cc-pVTZ          selected for orbital group  3

1PROGRAM * SEWARD (Integral evaluation for generally contracted gaussian basis sets)     Author: Roland Lindh, 1990

 Geometry written to block  1 of record 700


 Point group  C2v 



 ATOMIC COORDINATES

 NR  ATOM    CHARGE       X              Y              Z

   1  O       8.00    0.006632939    2.196063965    0.000000000
   2  O       8.00    0.006632939   -2.196063965    0.000000000
   3  O       8.00   16.950238686    0.000000000    0.000000000
   4  H       1.00   18.058030160    0.000000000    1.433415852
   5  H       1.00   18.058030160    0.000000000   -1.433415852
   6  C       6.00    0.037189810    0.000000000    0.000000000

 Bond lengths in Bohr (Angstrom)

 1-6  2.196276545  2-6  2.196276545  3-4  1.811596797  3-5  1.811596797
     (1.162219492)     (1.162219492)     (0.958655737)     (0.958655737)

 Bond angles

  1-6-2  178.40563223   4-3-5  104.60391356

 NUCLEAR CHARGE:                   32
 NUMBER OF PRIMITIVE AOS:         322
 NUMBER OF SYMMETRY AOS:          282
 NUMBER OF CONTRACTIONS:          230   (  84A1  +  59B1  +  54B2  +  33A2  )
 NUMBER OF CORE ORBITALS:           4   (   3A1  +   1B1  +   0B2  +   0A2  )
 NUMBER OF VALENCE ORBITALS:       18   (   8A1  +   5B1  +   4B2  +   1A2  )


 NUCLEAR REPULSION ENERGY   80.21062336


 Eigenvalues of metric

         1 0.379E-03 0.421E-03 0.902E-03 0.184E-02 0.317E-02 0.321E-02 0.405E-02 0.538E-02
         2 0.349E-03 0.922E-03 0.175E-02 0.348E-02 0.596E-02 0.744E-02 0.205E-01 0.216E-01
         3 0.394E-03 0.167E-02 0.318E-02 0.509E-02 0.622E-02 0.100E-01 0.136E-01 0.156E-01
         4 0.348E-02 0.124E-01 0.296E-01 0.363E-01 0.561E-01 0.679E-01 0.110E+00 0.139E+00


 Contracted 2-electron integrals neglected if value below      1.0D-11
 AO integral compression algorithm  1   Integral accuracy      1.0D-11

     157.811 MB (compressed) written to integral file ( 24.9%)

     Node minimum: 40.108 MB, node maximum: 62.128 MB


 NUMBER OF SORTED TWO-ELECTRON INTEGRALS:   29979201.     BUFFER LENGTH:  32768
 NUMBER OF SEGMENTS:   2  SEGMENT LENGTH:   15996954      RECORD LENGTH: 524288

 Memory used in sort:      16.55 MW

 SORT1 READ    79138734. AND WROTE     9507638. INTEGRALS IN     29 RECORDS. CPU TIME:     1.17 SEC, REAL TIME:     1.28 SEC
 SORT2 READ    28556434. AND WROTE    89930217. INTEGRALS IN    636 RECORDS. CPU TIME:     0.36 SEC, REAL TIME:     0.46 SEC

 Node minimum:    29974277.  Node maximum:    29979201. integrals

 OPERATOR DM      FOR CENTER  0  COORDINATES:    0.000000    0.000000    0.000000


 **********************************************************************************************************************************
 DATASETS  * FILE   NREC   LENGTH (MB)   RECORD NAMES
              1      18        3.23       500      610      700      900      950      970     1000      129      960     1100   
                                          VAR    BASINP    GEOM    SYMINP    ZMAT    AOBASIS   BASIS     P2S    ABASIS      S 
                                         1400     1410     1200     1210     1080     1600     1650     1700   
                                           T        V       H0       H01     AOSYM     SMH    MOLCAS    OPER   

 PROGRAMS   *        TOTAL       INT
 CPU TIMES  *         2.73      2.66
 REAL TIME  *         3.01 SEC
 DISK USED  *       508.72 MB      
 GA USED    *         0.00 MB       (max)       0.00 MB       (current)
 **********************************************************************************************************************************

1PROGRAM * RHF-SCF (CLOSED SHELL)       Authors: W. Meyer, H.-J. Werner


 NUMBER OF ELECTRONS:      16+   16-
 CONVERGENCE THRESHOLDS:    1.00E-05 (Density)    1.00E-07 (Energy)
 MAX. NUMBER OF ITERATIONS:       60
 INTERPOLATION TYPE:            DIIS
 INTERPOLATION STEPS:              2 (START)      1 (STEP)
 LEVEL SHIFTS:                  0.00 (CLOSED)  0.00 (OPEN) 



 Orbital guess generated from atomic densities. Full valence occupancy:   11   6   4   1

 Molecular orbital dump at record        2100.2

 Initial alpha occupancy:   8   5   2   1
 Initial beta  occupancy:   8   5   2   1
 Wave function symmetry:    1

 ITERATION    DDIFF          GRAD             ENERGY        2-EL.EN.            DIPOLE MOMENTS         DIIS
    1      0.000D+00      0.000D+00      -263.66029077    355.983611    1.18060    0.00000    0.00000    0
    2      0.000D+00      0.889D-02      -263.72559014    351.404771    0.68494    0.00000    0.00000    1
    3      0.143D-01      0.604D-02      -263.76893980    353.967871    0.80793    0.00000    0.00000    2
    4      0.588D-02      0.568D-03      -263.76943499    353.755263    0.81151    0.00000    0.00000    3
    5      0.694D-03      0.165D-03      -263.76949303    353.757809    0.80604    0.00000    0.00000    4
    6      0.258D-03      0.666D-04      -263.76950020    353.772195    0.80674    0.00000    0.00000    5
    7      0.855D-04      0.163D-04      -263.76950093    353.763865    0.80629    0.00000    0.00000    6
    8      0.280D-04      0.359D-05      -263.76950098    353.765166    0.80630    0.00000    0.00000    7
    9      0.768D-05      0.121D-05      -263.76950098    353.764975    0.80627    0.00000    0.00000    0

 Final occupancy:   8   5   2   1

 !RHF STATE 1.1 Energy               -263.769500983599
 Nuclear energy                        80.21062336
 One-electron energy                 -520.86261171
 Two-electron energy                  176.88248737
 Virial quotient                       -1.00182698
 !RHF STATE 1.1 Dipole moment           0.80627426     0.00000000     0.00000000
 Dipole moment /Debye                   2.04921053     0.00000000     0.00000000

 Orbital energies:

         1.1          2.1          3.1          4.1          5.1          6.1          7.1          8.1          9.1         10.1
    -20.650816   -20.567853   -11.459645    -1.528474    -1.353257    -0.798739    -0.712522    -0.584977     0.028597     0.050060

         1.2          2.2          3.2          4.2          5.2          6.2          7.2
    -20.650862    -1.475393    -0.740980    -0.542172    -0.510673     0.081222     0.157956

         1.3          2.3          3.3          4.3
     -0.717696    -0.712554     0.047280     0.075388

         1.4          2.4          3.4
     -0.542203     0.166055     0.264870


 **********************************************************************************************************************************
 DATASETS  * FILE   NREC   LENGTH (MB)   RECORD NAMES
              1      18        3.25       500      610      700      900      950      970     1000      129      960     1100   
                                          VAR    BASINP    GEOM    SYMINP    ZMAT    AOBASIS   BASIS     P2S    ABASIS      S 
                                         1400     1410     1200     1210     1080     1600     1650     1700   
                                           T        V       H0       H01     AOSYM     SMH    MOLCAS    OPER   

              2       3        0.67       700     1000     2100   
                                         GEOM     BASIS     RHF  

 PROGRAMS   *        TOTAL        HF       INT
 CPU TIMES  *         3.64      0.91      2.66
 REAL TIME  *         3.99 SEC
 DISK USED  *       526.11 MB      
 SF USED    *         0.06 MB      
 GA USED    *         0.00 MB       (max)       0.00 MB       (current)
 **********************************************************************************************************************************


1PROGRAM * CCSD (Closed-shell coupled cluster)     Authors: C. Hampel, H.-J. Werner, 1991, M. Deegan, P.J. Knowles, 1992

                                  CCSD-F12 implementation by  H.-J. Werner, 2007

                   Density fitting integral evaluation by F.R. Manby, 2003,2007, G. Knizia, 2010

 Basis set CC-PVTZ/JKFIT generated.      Number of basis functions:   376 
 Basis set AUG-CC-PVTZ/MP2FIT generated. Number of basis functions:   516 

 Convergence thresholds:  THRVAR = 1.00D-08  THRDEN = 1.00D-06

 CCSD(T)     terms to be evaluated (factor= 1.000)


 Number of core orbitals:           4 (   3   1   0   0 )
 Number of closed-shell orbitals:  12 (   5   4   2   1 )
 Number of external orbitals:     214 (  76  54  52  32 )

 Molecular orbitals read from record     2100.2  Type=RHF/CANONICAL (state 1.1)

 MP2-F12 correlation treatment (H.-J. Werner, 2006)
 --------------------------------------------------

 Using MP2-F12 with ansatz 3C(FIX)

 Using projected zeroth-order Hamiltonian (+Z)

 FOCKRIB=T FOCKRIC=T FOCKRIP=T CABSP=T CABSA=T CABSK=T CABSF=T GBC=F EBC=F DMAT=T NOFIK=T NOPAO=1 SOLVE=-1  USEPAO=0
 EXCH_A= T EXCH_B= F EXCH_C= F EXCH_P= F
 
 Geminal basis:    OPTFULL  GEM_TYPE=SLATER  BETA=1.0  NGEM=6

 Optimizing Gaussian exponents for each gem_beta

 Geminal optimization for beta= 1.0000
 Weight function:   m=0, omega= 1.4646

 Augmented Hessian optimization of geminal fit. Trust ratio= 0.40000
 Convergence reached after   2 iterations. Final gradient= 8.24D-16, Step= 4.32D-06, Delta= 1.28D-09
 
 Alpha:                 0.19532     0.81920     2.85917     9.50073    35.69989   197.79328
 Coeff:                 0.27070     0.30552     0.18297     0.10986     0.06810     0.04224
 

 Symmetry turned off. Reference energy:       -263.769500983599

 All pairs explicitly correlated. Number of r12-pairs:           78
 
 AO(A)-basis ORBITAL           loaded. Number of functions:     230
 RI(R)-basis CC-PVTZ/JKFIT     loaded. Number of functions:     376
 DF-basis CC-PVTZ/JKFIT        loaded. Number of functions:     376

 Screening thresholds:   THRAO=  1.00D-10  THRMO=  1.00D-09  THRPROD=  1.00D-09
                         THRSW=  1.00D-05  THROV=  1.00D-12  THRF12=   1.00D-08

 CPU time for Fock operators                      0.82 sec
 
 Construction of ABS:
 Smallest eigenvalue of S          2.57E-04  (threshold= 1.00E-08)
 Ratio eigmin/eigmax               1.83E-06  (threshold= 1.00E-09)
 Smallest eigenvalue of S kept     2.57E-04  (threshold= 2.57E-04, 0 functions deleted, 376 kept)
 
 Construction of CABS:
 Smallest eigenvalue of S          2.30E-08  (threshold= 1.00E-08)
 Ratio eigmin/eigmax               2.30E-08  (threshold= 1.00E-09)
 Smallest eigenvalue of S kept     2.30E-08  (threshold= 2.30E-08, 0 functions deleted, 376 kept)
 
 CPU time for CABS singles                        0.15 sec

 CABS-singles contribution of  -0.01592427 patched into reference energy.
 New reference energy        -263.78542525
 
 AO(A)-basis ORBITAL           loaded. Number of functions:     230
 RI(R)-basis CC-PVTZ/JKFIT     loaded. Number of functions:     376
 DF-basis AUG-CC-PVTZ/MP2FIT   loaded. Number of functions:     516

 Screening thresholds:   THRAO=  1.00D-10  THRMO=  1.00D-09  THRPROD=  1.00D-09
                         THRSW=  1.00D-05  THROV=  1.00D-12  THRF12=   1.00D-08

 CPU time for 3-index integral evaluation         1.58 sec
 CPU time for first  half transformation          0.20 sec (10151.3 MFLOP/sec)
 CPU time for second half transformation          0.03 sec ( 3011.9 MFLOP/sec)
 CPU time for sorting                             0.11 sec
 CPU time for fitting                             0.04 sec (34826.3 MFLOP/sec)
 CPU time for tilde quantities                    0.05 sec (36977.6 MFLOP/sec)
 CPU time for assembly                            0.74 sec (32008.2 MFLOP/sec)
 CPU time for tranop_f12                          0.82 sec (36423.7 MFLOP/sec)
 CPU time for f12 integrals (total)               5.61 sec
 F12-matrices built in  3 passes.
 F12-matrices built in  3 passes.
 F12-matrices built in  3 passes.
 F12-matrices built in  3 passes.
 FC-matrix built in  3 passes.
 CPU time for f12 matrices (total)                0.43 sec

 Diagonal F12 approximation with fixed coefficients:  TSING= 0.500,  TTRIP= 0.250 (scaled by -1/beta)

 DF-MP2-F12 energy corrections:
 ------------------------------
 Approx.                                    Singlet             Triplet             Total
 DF-MP2-F12/3*C(DX,FIX)                -0.097450661619     -0.016933826378     -0.114384487997
 DF-MP2-F12/3*C(FIX)                   -0.079865656106     -0.013395893437     -0.093261549543
 DF-MP2-F12/3C(FIX)                    -0.080226737728     -0.013419204717     -0.093645942445

 DF-MP2-F12 correlation energies:
 --------------------------------
 Approx.                                    Singlet             Triplet             Ecorr            Total Energy
 DF-MP2                                -0.537742892724     -0.343082298512     -0.880825191236   -264.666250442785
 DF-MP2-F12/3*C(DX,FIX)                -0.635193554343     -0.360016124890     -0.995209679233   -264.780634930782
 DF-MP2-F12/3*C(FIX)                   -0.617608548830     -0.356478191949     -0.974086740779   -264.759511992328
 DF-MP2-F12/3C(FIX)                    -0.617969630452     -0.356501503229     -0.974471133681   -264.759896385230

 SCS-DF-MP2 energies (F_SING= 1.20000  F_TRIP= 0.62222  F_PARALLEL= 0.33333):
 ----------------------------------------------------------------------------
 SCS-DF-MP2                            -0.858764901454   -264.644190153003
 SCS-DF-MP2-F12/3*C(DX,FIX)            -0.986242298476   -264.771667550025
 SCS-DF-MP2-F12/3*C(FIX)               -0.962938911365   -264.748364162913
 SCS-DF-MP2-F12/3C(FIX)                -0.963386714107   -264.748811965656

 Symmetry restored.
 Symmetry transformation completed.

 Number of N-1 electron functions:              12
 Number of N-2 electron functions:              78
 Number of singly external CSFs:               732
 Number of doubly external CSFs:            836016
 Total number of CSFs:                      836749

 Pair and operator lists are different

 Length of J-op  integral file:             462.26 MB
 Length of K-op  integral file:             502.03 MB
 Length of 3-ext integral record:             0.00 MB

 Memory could be reduced to 38.69 Mwords without degradation in triples

 Integral transformation finished. Total CPU:   1.32 sec, npass=  1  Memory used:   6.07 MW

 Reference energy:                   -263.78542525

 Adding F12 terms to K(Cij), methodcc=6,  factor=1.0

 ITER.      SQ.NORM     CORR.ENERGY   TOTAL ENERGY   ENERGY CHANGE        DEN1      VAR(S)    VAR(P)  DIIS     TIME
   1      1.20215935    -0.86277371  -264.64819897     0.01806792     0.04670483  0.72D-02  0.56D-02  1  1     9.43
   2      1.21647395    -0.85854572  -264.64397097     0.00422799    -0.02015539  0.86D-04  0.59D-03  2  2    10.22
   3      1.22183561    -0.85864187  -264.64406712    -0.00009615    -0.00236445  0.13D-03  0.32D-04  3  3    11.03
   4      1.22463805    -0.85851395  -264.64393920     0.00012792    -0.00141157  0.76D-05  0.41D-05  4  4    11.83
   5      1.22566827    -0.85847625  -264.64390150     0.00003771    -0.00036647  0.55D-06  0.29D-06  5  5    12.66
   6      1.22583044    -0.85844938  -264.64387463     0.00002686    -0.00000805  0.40D-07  0.24D-07  6  6    13.46
   7      1.22585979    -0.85844696  -264.64387221     0.00000242    -0.00000622  0.25D-08  0.40D-08  6  4    14.27
   8      1.22586009    -0.85844647  -264.64387172     0.00000049     0.00000195  0.39D-09  0.27D-09  6  1    15.08
   9      1.22586070    -0.85844654  -264.64387179    -0.00000007     0.00000056  0.25D-10  0.21D-10  6  2    15.89

 Norm of t1 vector:      0.10597299      S-energy:    -0.00000003      T1 diagnostic:  0.01529588
                                                                       D1 diagnostic:  0.04494976

 Adding energy correction from Wij-K(Fij), methodcc=6  factor=1.0
 
  CCSD correlation energy              -0.858446535929
  MP2-F12 correction (uncoupled)       -0.092488561036
  C*T doubles correction               -0.001475951381
  f12b correction                       0.015406904246


 Total CPU time for triples:     24.85 sec


 RESULTS
 =======

  Reference energy                   -263.769500983599
  F12 singles correction               -0.015924267950

 F12 singles corrections added to reference energy

  New reference energy               -263.785425251549

  F12a singlet correction              -0.080426714066
  F12a triplet correction              -0.013537798351
  F12a total correction                -0.093964512417

 F12a corrections for ansatz F12/3C(FIX) added to CCSD energy
 
  CCSD-F12a singlet pair energy        -0.641907201782
  CCSD-F12a triplet pair energy        -0.310503819643
  CCSD-F12a correlation energy         -0.952411048346

  Triples (T) contribution             -0.037641886020
  Total correlation energy             -0.990052934366

  CCSD-F12a total energy             -264.737836299895
  CCSD[T]-F12a energy                -264.778022353482
  CCSD-T-F12a energy                 -264.774540386934
 !CCSD(T)-F12a total energy          -264.775478185915

 F12b corrections for ansatz F12/3C(FIX) added to CCSD(T)-F12a energy

  CCSD-F12b singlet pair energy        -0.627723586039
  CCSD-F12b triplet pair energy        -0.309280531141
  CCSD-F12b correlation energy         -0.937004144100

  Triples (T) contribution             -0.037641886020
  Total correlation energy             -0.974646030121

  CCSD-F12b total energy             -264.722429395649
  CCSD[T]-F12b energy                -264.762615449236
  CCSD-T-F12b energy                 -264.759133482688
 !CCSD(T)-F12b total energy          -264.760071281669

 Timing summary (sec):

 STEP                 CPU(USER)    SYS     CPU(TOT)    WALL
 Transformation          1.33      0.18      1.51      1.51
 CCSD iterations         7.23      0.54      7.77      7.74
 Triples                24.85      0.86     25.71     25.71
 MP2-F12                 7.34      0.97      8.31      8.32
 F12b energy             0.46      0.01      0.47      0.47

 Program statistics:

 Available memory in ccsd:                99998934
 Min. memory needed in ccsd:               2244783
 Max. memory used in ccsd:                 3005571
 Max. memory used in cckext:               2769663 (10 integral passes)



 **********************************************************************************************************************************
 DATASETS  * FILE   NREC   LENGTH (MB)   RECORD NAMES
              1      20      137.19       500      610      700      900      950      970     1000      129      960     1100   
                                          VAR    BASINP    GEOM    SYMINP    ZMAT    AOBASIS   BASIS     P2S    ABASIS      S 
                                         1400     1410     1200     1210     1080     1600     1650     1700      960(1)  1380   
                                           T        V       H0       H01     AOSYM     SMH    MOLCAS    OPER    ABASIS    JKOP   

              2       5        0.97       700     1000     2100     7360     7350   
                                         GEOM     BASIS     RHF    F12ABS    EF12   

 PROGRAMS   *        TOTAL   CCSD(T)        HF       INT
 CPU TIMES  *        45.02     41.38      0.91      2.66
 REAL TIME  *        47.95 SEC
 DISK USED  *       747.78 MB      
 SF USED    *         1.34 GB      
 GA USED    *         2.40 MB       (max)       0.00 MB       (current)
 **********************************************************************************************************************************

     CCSD(T)-F12        HF-SCF  
   -264.76007128   -263.76950098
 **********************************************************************************************************************************
 Variable memory released
