
 Primary working directories    : /scratch/kee
 Secondary working directories  : /scratch/kee
 Wavefunction directory         : /home/kee/wfu/
 Main file repository           : /scratch/kee/

 ARCHNAME  : Linux/x86_64
 FC        : /opt/intel/composer_xe_2015.0.090/bin/intel64/ifort
 FCVERSION : 15.0.0
 BLASLIB   : -L/opt/intel/mkl/lib/intel64 -lmkl_intel_ilp64 -lmkl_sequential -lmkl_core
 id        : emory

 Nodes     nprocs
 node20       3
 Number of processes for MPI-2 version of Molpro:   nprocs(total)=    4   nprocs(compute)=    3   nprocs(helper)=    1
 ga_uses_ma=false, calling ma_init with nominal heap.
 GA-space will be limited to   8.0 MW (determined by -G option)

 Using customized tuning parameters: mindgm=7; mindgv=32; mindgc=1; mindgr=1; noblas=0; mincuda=1000; minvec=7
 default implementation of scratch files=sf  

 ***,co2h2o
 memory,100,m
 basis avtz
 geomtype = xyz
 geometry = {
 6
       0.00000000
 O     0.00032100    1.15989800    0.00000000
 O     0.00041400   -1.15989400    0.00000000
 O     7.03494913    5.15507349    1.84912276
 H     7.82650364    5.46402913    1.40677412
 H     7.34893494    4.67644574    2.61724499
 C     0.01953800    0.00000300    0.00000000
 }
 hf
 ccsd(t)-f12
 ---

 Variables initialized (665), CPU time= 0.01 sec
 Commands  initialized (462), CPU time= 0.00 sec, 486 directives.
 Default parameters read. Elapsed time= 0.03 sec

 Checking input...
 Passed
1


                                         ***  PROGRAM SYSTEM MOLPRO  ***
                         Copyright, University College Cardiff Consultants Limited, 2008

                                    Version 2010.1 linked 9 Dec 2014 15:06:28 


 **********************************************************************************************************************************
 LABEL *   co2h2o                                                                        
 Linux-2.6.32-504.el6.x86_64/node20(x86_64) 64 bit mpp version                           DATE: 15-Dec-16          TIME: 00:44:13  
 **********************************************************************************************************************************

 Patch level:      19
 **********************************************************************************************************************************

 Variable memory set to  100000000 words,  buffer space   230000 words

 SETTING BASIS          =    AVTZ
 SETTING GEOMTYPE       =    XYZ

Geometry recognized as XYZ



 Recomputing integrals since basis changed


 Using spherical harmonics

 Library entry O      S aug-cc-pVTZ          selected for orbital group  1
 Library entry O      P aug-cc-pVTZ          selected for orbital group  1
 Library entry O      D aug-cc-pVTZ          selected for orbital group  1
 Library entry O      F aug-cc-pVTZ          selected for orbital group  1
 Library entry H      S aug-cc-pVTZ          selected for orbital group  2
 Library entry H      P aug-cc-pVTZ          selected for orbital group  2
 Library entry H      D aug-cc-pVTZ          selected for orbital group  2
 Library entry C      S aug-cc-pVTZ          selected for orbital group  3
 Library entry C      P aug-cc-pVTZ          selected for orbital group  3
 Library entry C      D aug-cc-pVTZ          selected for orbital group  3
 Library entry C      F aug-cc-pVTZ          selected for orbital group  3

1PROGRAM * SEWARD (Integral evaluation for generally contracted gaussian basis sets)     Author: Roland Lindh, 1990

 Geometry written to block  1 of record 700


 Point group  C1  



 ATOMIC COORDINATES

 NR  ATOM    CHARGE       X              Y              Z

   1  O       8.00    0.000606602    2.191889560    0.000000000
   2  O       8.00    0.000782347   -2.191882001    0.000000000
   3  O       8.00   13.294127204    9.741677083    3.494335600
   4  H       1.00   14.789948446   10.325518630    2.658417816
   5  H       1.00   13.887474394    8.837201717    4.945876250
   6  C       6.00    0.036921469    0.000005669    0.000000000

 Bond lengths in Bohr (Angstrom)

 1-6  2.192184701  2-6  2.192185575  3-4  1.810279172  3-5  1.810278110
     (1.160054182)     (1.160054644)     (0.957958480)     (0.957957918)

 Bond angles

  1-6-2  178.10622893   4-3-5  105.10354942

 NUCLEAR CHARGE:                   32
 NUMBER OF PRIMITIVE AOS:         322
 NUMBER OF SYMMETRY AOS:          282
 NUMBER OF CONTRACTIONS:          230   ( 230A   )
 NUMBER OF CORE ORBITALS:           4   (   4A   )
 NUMBER OF VALENCE ORBITALS:       18   (  18A   )


 NUCLEAR REPULSION ENERGY   80.51448154


 Eigenvalues of metric

         1 0.346E-03 0.379E-03 0.392E-03 0.419E-03 0.896E-03 0.914E-03 0.167E-02 0.174E-02


 Contracted 2-electron integrals neglected if value below      1.0D-11
 AO integral compression algorithm  1   Integral accuracy      1.0D-11

     460.325 MB (compressed) written to integral file ( 19.9%)

     Node minimum: 137.888 MB, node maximum: 168.821 MB


 NUMBER OF SORTED TWO-ELECTRON INTEGRALS:  117629820.     BUFFER LENGTH:  32768
 NUMBER OF SEGMENTS:   8  SEGMENT LENGTH:   15997437      RECORD LENGTH: 524288

 Memory used in sort:      16.55 MW

 SORT1 READ   288539095. AND WROTE    32331597. INTEGRALS IN     96 RECORDS. CPU TIME:     2.63 SEC, REAL TIME:     2.99 SEC
 SORT2 READ    96583126. AND WROTE   352862895. INTEGRALS IN   1758 RECORDS. CPU TIME:     0.99 SEC, REAL TIME:     1.28 SEC

 Node minimum:   117612110.  Node maximum:   117629820. integrals

 OPERATOR DM      FOR CENTER  0  COORDINATES:    0.000000    0.000000    0.000000


 **********************************************************************************************************************************
 DATASETS  * FILE   NREC   LENGTH (MB)   RECORD NAMES
              1      18        4.62       500      610      700      900      950      970     1000      129      960     1100   
                                          VAR    BASINP    GEOM    SYMINP    ZMAT    AOBASIS   BASIS     P2S    ABASIS      S 
                                         1400     1410     1200     1210     1080     1600     1650     1700   
                                           T        V       H0       H01     AOSYM     SMH    MOLCAS    OPER   

 PROGRAMS   *        TOTAL       INT
 CPU TIMES  *         6.41      6.34
 REAL TIME  *         7.24 SEC
 DISK USED  *         1.59 GB      
 GA USED    *         0.00 MB       (max)       0.00 MB       (current)
 **********************************************************************************************************************************

1PROGRAM * RHF-SCF (CLOSED SHELL)       Authors: W. Meyer, H.-J. Werner


 NUMBER OF ELECTRONS:      16+   16-    SPACE SYMMETRY=1    SPIN SYMMETRY=Singlet 
 CONVERGENCE THRESHOLDS:    1.00E-05 (Density)    1.00E-07 (Energy)
 MAX. NUMBER OF ITERATIONS:       60
 INTERPOLATION TYPE:            DIIS
 INTERPOLATION STEPS:              2 (START)      1 (STEP)
 LEVEL SHIFTS:                  0.00 (CLOSED)  0.00 (OPEN) 



 Orbital guess generated from atomic densities. Full valence occupancy:   22

 Molecular orbital dump at record        2100.2

 ITERATION    DDIFF          GRAD             ENERGY        2-EL.EN.            DIPOLE MOMENTS         DIIS
    1      0.000D+00      0.000D+00      -263.66130347    356.569603    1.12568   -0.16409    0.31507    0
    2      0.000D+00      0.468D-02      -263.72650751    351.993240    0.64609   -0.08772    0.18695    1
    3      0.749D-02      0.317D-02      -263.76938914    354.549901    0.76659   -0.10826    0.21735    2
    4      0.307D-02      0.296D-03      -263.76987746    354.336499    0.76963   -0.10764    0.21860    3
    5      0.356D-03      0.858D-04      -263.76993387    354.340499    0.76455   -0.10772    0.21709    4
    6      0.132D-03      0.344D-04      -263.76994075    354.354238    0.76516   -0.10729    0.21731    5
    7      0.433D-04      0.852D-05      -263.76994145    354.346058    0.76474   -0.10748    0.21718    6
    8      0.141D-04      0.193D-05      -263.76994150    354.347265    0.76474   -0.10729    0.21718    7
    9      0.383D-05      0.930D-06      -263.76994150    354.347151    0.76472   -0.10746    0.21718    0

 Final occupancy:  16

 !RHF STATE 1.1 Energy               -263.769941503684
 Nuclear energy                        80.51448154
 One-electron energy                 -521.45799854
 Two-electron energy                  177.17357550
 Virial quotient                       -1.00173741
 !RHF STATE 1.1 Dipole moment           0.76471908    -0.10746443     0.21717579
 Dipole moment /Debye                   1.94359471    -0.27312943     0.55196963

 Orbital energies:

         1.1          2.1          3.1          4.1          5.1          6.1          7.1          8.1          9.1         10.1
    -20.650961   -20.650717   -20.567169   -11.458955    -1.530245    -1.477121    -1.352914    -0.799015    -0.741881    -0.718701

        11.1         12.1         13.1         14.1         15.1         16.1         17.1         18.1
     -0.714046    -0.714027    -0.583747    -0.542863    -0.542831    -0.510231     0.028733     0.046101


 **********************************************************************************************************************************
 DATASETS  * FILE   NREC   LENGTH (MB)   RECORD NAMES
              1      18        4.62       500      610      700      900      950      970     1000      129      960     1100   
                                          VAR    BASINP    GEOM    SYMINP    ZMAT    AOBASIS   BASIS     P2S    ABASIS      S 
                                         1400     1410     1200     1210     1080     1600     1650     1700   
                                           T        V       H0       H01     AOSYM     SMH    MOLCAS    OPER   

              2       3        1.44       700     1000     2100   
                                         GEOM     BASIS     RHF  

 PROGRAMS   *        TOTAL        HF       INT
 CPU TIMES  *        14.65      8.24      6.34
 REAL TIME  *        15.70 SEC
 DISK USED  *         1.63 GB      
 SF USED    *         0.21 MB      
 GA USED    *         0.00 MB       (max)       0.00 MB       (current)
 **********************************************************************************************************************************


1PROGRAM * CCSD (Closed-shell coupled cluster)     Authors: C. Hampel, H.-J. Werner, 1991, M. Deegan, P.J. Knowles, 1992

                                  CCSD-F12 implementation by  H.-J. Werner, 2007

                   Density fitting integral evaluation by F.R. Manby, 2003,2007, G. Knizia, 2010

 Basis set CC-PVTZ/JKFIT generated.      Number of basis functions:   376 
 Basis set AUG-CC-PVTZ/MP2FIT generated. Number of basis functions:   516 

 Convergence thresholds:  THRVAR = 1.00D-08  THRDEN = 1.00D-06

 CCSD(T)     terms to be evaluated (factor= 1.000)


 Number of core orbitals:           4 (   4 )
 Number of closed-shell orbitals:  12 (  12 )
 Number of external orbitals:     214 ( 214 )

 Molecular orbitals read from record     2100.2  Type=RHF/CANONICAL (state 1.1)

 MP2-F12 correlation treatment (H.-J. Werner, 2006)
 --------------------------------------------------

 Using MP2-F12 with ansatz 3C(FIX)

 Using projected zeroth-order Hamiltonian (+Z)

 FOCKRIB=T FOCKRIC=T FOCKRIP=T CABSP=T CABSA=T CABSK=T CABSF=T GBC=F EBC=F DMAT=T NOFIK=T NOPAO=1 SOLVE=-1  USEPAO=0
 EXCH_A= T EXCH_B= F EXCH_C= F EXCH_P= F
 
 Geminal basis:    OPTFULL  GEM_TYPE=SLATER  BETA=1.0  NGEM=6

 Optimizing Gaussian exponents for each gem_beta

 Geminal optimization for beta= 1.0000
 Weight function:   m=0, omega= 1.4646

 Augmented Hessian optimization of geminal fit. Trust ratio= 0.40000
 Convergence reached after   2 iterations. Final gradient= 8.24D-16, Step= 4.32D-06, Delta= 1.28D-09
 
 Alpha:                 0.19532     0.81920     2.85917     9.50073    35.69989   197.79328
 Coeff:                 0.27070     0.30552     0.18297     0.10986     0.06810     0.04224
 

 All pairs explicitly correlated. Number of r12-pairs:           78
 
 AO(A)-basis ORBITAL           loaded. Number of functions:     230
 RI(R)-basis CC-PVTZ/JKFIT     loaded. Number of functions:     376
 DF-basis CC-PVTZ/JKFIT        loaded. Number of functions:     376

 Screening thresholds:   THRAO=  1.00D-10  THRMO=  1.00D-09  THRPROD=  1.00D-09
                         THRSW=  1.00D-05  THROV=  1.00D-12  THRF12=   1.00D-08

 CPU time for Fock operators                      0.96 sec
 
 Construction of ABS:
 Smallest eigenvalue of S          2.57E-04  (threshold= 1.00E-08)
 Ratio eigmin/eigmax               1.83E-06  (threshold= 1.00E-09)
 Smallest eigenvalue of S kept     2.57E-04  (threshold= 2.57E-04, 0 functions deleted, 376 kept)
 
 Construction of CABS:
 Smallest eigenvalue of S          2.29E-08  (threshold= 1.00E-08)
 Ratio eigmin/eigmax               2.29E-08  (threshold= 1.00E-09)
 Smallest eigenvalue of S kept     2.29E-08  (threshold= 2.29E-08, 0 functions deleted, 376 kept)
 
 CPU time for CABS singles                        0.17 sec

 CABS-singles contribution of  -0.01596111 patched into reference energy.
 New reference energy        -263.78590262
 
 AO(A)-basis ORBITAL           loaded. Number of functions:     230
 RI(R)-basis CC-PVTZ/JKFIT     loaded. Number of functions:     376
 DF-basis AUG-CC-PVTZ/MP2FIT   loaded. Number of functions:     516

 Screening thresholds:   THRAO=  1.00D-10  THRMO=  1.00D-09  THRPROD=  1.00D-09
                         THRSW=  1.00D-05  THROV=  1.00D-12  THRF12=   1.00D-08

 CPU time for 3-index integral evaluation         1.82 sec
 CPU time for first  half transformation          0.30 sec ( 6972.4 MFLOP/sec)
 CPU time for second half transformation          0.01 sec ( 9434.2 MFLOP/sec)
 CPU time for sorting                             0.14 sec
 CPU time for fitting                             0.06 sec (23217.5 MFLOP/sec)
 CPU time for tilde quantities                    0.05 sec (36977.6 MFLOP/sec)
 CPU time for assembly                            0.84 sec (27331.9 MFLOP/sec)
 CPU time for tranop_f12                          0.94 sec (32078.1 MFLOP/sec)
 CPU time for f12 integrals (total)               6.35 sec
 F12-matrices built in  3 passes.
 F12-matrices built in  3 passes.
 F12-matrices built in  3 passes.
 F12-matrices built in  3 passes.
 FC-matrix built in  3 passes.
 CPU time for f12 matrices (total)                0.53 sec

 Diagonal F12 approximation with fixed coefficients:  TSING= 0.500,  TTRIP= 0.250 (scaled by -1/beta)

 DF-MP2-F12 energy corrections:
 ------------------------------
 Approx.                                    Singlet             Triplet             Total
 DF-MP2-F12/3*C(DX,FIX)                -0.097504482931     -0.016950736874     -0.114455219805
 DF-MP2-F12/3*C(FIX)                   -0.079904636216     -0.013407787231     -0.093312423447
 DF-MP2-F12/3C(FIX)                    -0.080263047089     -0.013430757341     -0.093693804429

 DF-MP2-F12 correlation energies:
 --------------------------------
 Approx.                                    Singlet             Triplet             Ecorr            Total Energy
 DF-MP2                                -0.537341773822     -0.342778513086     -0.880120286908   -264.666022904343
 DF-MP2-F12/3*C(DX,FIX)                -0.634846256753     -0.359729249960     -0.994575506713   -264.780478124149
 DF-MP2-F12/3*C(FIX)                   -0.617246410038     -0.356186300317     -0.973432710355   -264.759335327790
 DF-MP2-F12/3C(FIX)                    -0.617604820911     -0.356209270426     -0.973814091337   -264.759716708772

 SCS-DF-MP2 energies (F_SING= 1.20000  F_TRIP= 0.62222  F_PARALLEL= 0.33333):
 ----------------------------------------------------------------------------
 SCS-DF-MP2                            -0.858094536729   -264.643997154164
 SCS-DF-MP2-F12/3*C(DX,FIX)            -0.985647041412   -264.771549658848
 SCS-DF-MP2-F12/3*C(FIX)               -0.962322723354   -264.748225340789
 SCS-DF-MP2-F12/3C(FIX)                -0.962767108914   -264.748669726349
 Symmetry transformation completed.

 Number of N-1 electron functions:              12
 Number of N-2 electron functions:              78
 Number of singly external CSFs:              2568
 Number of doubly external CSFs:           3298596
 Total number of CSFs:                     3301165

 Pair and operator lists are different

 Length of J-op  integral file:             474.22 MB
 Length of K-op  integral file:             572.29 MB
 Length of 3-ext integral record:             0.00 MB

 For full I/O caching in triples, increase memory by 50.81 Mwords to 151.09 Mwords.

 Integral transformation finished. Total CPU:  13.17 sec, npass=  1  Memory used:  87.46 MW

 Reference energy:                   -263.78590262

 Adding F12 terms to K(Cij), methodcc=6,  factor=1.0

 ITER.      SQ.NORM     CORR.ENERGY   TOTAL ENERGY   ENERGY CHANGE        DEN1      VAR(S)    VAR(P)  DIIS     TIME
   1      1.20176397    -0.86220614  -264.64810875     0.01793055     0.04638412  0.71D-02  0.55D-02  1  1    29.04
   2      1.21598931    -0.85802173  -264.64392434     0.00418441    -0.02004639  0.85D-04  0.58D-03  2  2    36.70
   3      1.22130003    -0.85811581  -264.64401843    -0.00009408    -0.00235181  0.13D-03  0.32D-04  3  3    44.25
   4      1.22407037    -0.85799072  -264.64389333     0.00012509    -0.00140056  0.74D-05  0.40D-05  4  4    52.07
   5      1.22508390    -0.85795372  -264.64385634     0.00003700    -0.00036151  0.54D-06  0.28D-06  5  5    59.85
   6      1.22524341    -0.85792727  -264.64382989     0.00002645    -0.00000787  0.39D-07  0.23D-07  6  6    67.68
   7      1.22527222    -0.85792489  -264.64382751     0.00000238    -0.00000613  0.25D-08  0.39D-08  6  4    75.49
   8      1.22527251    -0.85792441  -264.64382703     0.00000048     0.00000192  0.38D-09  0.26D-09  6  1    83.30
   9      1.22527311    -0.85792448  -264.64382709    -0.00000007     0.00000055  0.25D-10  0.21D-10  6  2    90.80

 Norm of t1 vector:      0.10538226      S-energy:     0.00000009      T1 diagnostic:  0.01521062
                                                                       D1 diagnostic:  0.04464290

 Adding energy correction from Wij-K(Fij), methodcc=6  factor=1.0
 
  CCSD correlation energy              -0.857924476993
  MP2-F12 correction (uncoupled)       -0.092542061571
  C*T doubles correction               -0.001473707487
  f12b correction                       0.015403109964


 Total CPU time for triples:    214.63 sec


 RESULTS
 =======

  Reference energy                   -263.769941503684
  F12 singles correction               -0.015961113752

 F12 singles corrections added to reference energy

  New reference energy               -263.785902617436

  F12a singlet correction              -0.080465722201
  F12a triplet correction              -0.013550046858
  F12a total correction                -0.094015769058

 F12a corrections for ansatz F12/3C(FIX) added to CCSD energy
 
  CCSD-F12a singlet pair energy        -0.641551031469
  CCSD-F12a triplet pair energy        -0.310389303478
  CCSD-F12a correlation energy         -0.951940246051

  Triples (T) contribution             -0.037510883208
  Total correlation energy             -0.989451129259

  CCSD-F12a total energy             -264.737842863487
  CCSD[T]-F12a energy                -264.777870725490
  CCSD-T-F12a energy                 -264.774423953047
 !CCSD(T)-F12a total energy          -264.775353746695

 F12b corrections for ansatz F12/3C(FIX) added to CCSD(T)-F12a energy

  CCSD-F12b singlet pair energy        -0.627371819377
  CCSD-F12b triplet pair energy        -0.309165405606
  CCSD-F12b correlation energy         -0.936537136087

  Triples (T) contribution             -0.037510883208
  Total correlation energy             -0.974048019295

  CCSD-F12b total energy             -264.722439753523
  CCSD[T]-F12b energy                -264.762467615526
  CCSD-T-F12b energy                 -264.759020843082
 !CCSD(T)-F12b total energy          -264.759950636731

 Timing summary (sec):

 STEP                 CPU(USER)    SYS     CPU(TOT)    WALL
 Transformation         13.28      1.13     14.41     14.43
 CCSD iterations        68.90      2.83     71.73     73.54
 Triples               214.63      2.12    216.75    216.66
 MP2-F12                 8.63      1.29      9.92     10.06
 F12b energy             4.57      0.04      4.61      4.61

 Program statistics:

 Available memory in ccsd:                99998934
 Min. memory needed in ccsd:               8644845
 Max. memory used in ccsd:                11598633
 Max. memory used in cckext:               8768967 (10 integral passes)



 **********************************************************************************************************************************
 DATASETS  * FILE   NREC   LENGTH (MB)   RECORD NAMES
              1      20      527.84       500      610      700      900      950      970     1000      129      960     1100   
                                          VAR    BASINP    GEOM    SYMINP    ZMAT    AOBASIS   BASIS     P2S    ABASIS      S 
                                         1400     1410     1200     1210     1080     1600     1650     1700      960(1)  1380   
                                           T        V       H0       H01     AOSYM     SMH    MOLCAS    OPER    ABASIS    JKOP   

              2       5        2.50       700     1000     2100     7360     7350   
                                         GEOM     BASIS     RHF    F12ABS    EF12   

 PROGRAMS   *        TOTAL   CCSD(T)        HF       INT
 CPU TIMES  *       324.89    310.22      8.24      6.34
 REAL TIME  *       335.40 SEC
 DISK USED  *         2.49 GB      
 SF USED    *         1.91 GB      
 GA USED    *         2.40 MB       (max)       0.00 MB       (current)
 **********************************************************************************************************************************

     CCSD(T)-F12        HF-SCF  
   -264.75995064   -263.76994150
 **********************************************************************************************************************************
 Variable memory released
