
 Primary working directories    : /scratch/kee
 Secondary working directories  : /scratch/kee
 Wavefunction directory         : /home/kee/wfu/
 Main file repository           : /scratch/kee/

 ARCHNAME  : Linux/x86_64
 FC        : /opt/intel/composer_xe_2015.0.090/bin/intel64/ifort
 FCVERSION : 15.0.0
 BLASLIB   : -L/opt/intel/mkl/lib/intel64 -lmkl_intel_ilp64 -lmkl_sequential -lmkl_core
 id        : emory

 Nodes     nprocs
 node16       3
 Number of processes for MPI-2 version of Molpro:   nprocs(total)=    4   nprocs(compute)=    3   nprocs(helper)=    1
 ga_uses_ma=false, calling ma_init with nominal heap.
 GA-space will be limited to   8.0 MW (determined by -G option)

 Using customized tuning parameters: mindgm=7; mindgv=32; mindgc=1; mindgr=1; noblas=0; mincuda=1000; minvec=7
 default implementation of scratch files=sf  

 ***,co2h2o
 memory,100,m
 basis avtz
 geomtype = xyz
 geometry = {
 6
       0.00000000
 O     0.01288800    1.16233300    0.00000000
 O     0.01288800   -1.16233300    0.00000000
 O    12.40363900    0.00000000    0.00000000
 H    11.82249900    0.76306800    0.00000000
 H    11.82249900   -0.76306800    0.00000000
 C     0.00363900    0.00000000    0.00000000
 }
 hf
 ccsd(t)-f12
 ---

 Variables initialized (665), CPU time= 0.00 sec
 Commands  initialized (462), CPU time= 0.01 sec, 486 directives.
 Default parameters read. Elapsed time= 0.04 sec

 Checking input...
 Passed
1


                                         ***  PROGRAM SYSTEM MOLPRO  ***
                         Copyright, University College Cardiff Consultants Limited, 2008

                                    Version 2010.1 linked 9 Dec 2014 15:06:28 


 **********************************************************************************************************************************
 LABEL *   co2h2o                                                                        
 Linux-2.6.32-504.el6.x86_64/node16(x86_64) 64 bit mpp version                           DATE: 15-Dec-16          TIME: 00:30:15  
 **********************************************************************************************************************************

 Patch level:      19
 **********************************************************************************************************************************

 Variable memory set to  100000000 words,  buffer space   230000 words

 SETTING BASIS          =    AVTZ
 SETTING GEOMTYPE       =    XYZ

Geometry recognized as XYZ



 Recomputing integrals since basis changed


 Using spherical harmonics

 Library entry O      S aug-cc-pVTZ          selected for orbital group  1
 Library entry O      P aug-cc-pVTZ          selected for orbital group  1
 Library entry O      D aug-cc-pVTZ          selected for orbital group  1
 Library entry O      F aug-cc-pVTZ          selected for orbital group  1
 Library entry H      S aug-cc-pVTZ          selected for orbital group  2
 Library entry H      P aug-cc-pVTZ          selected for orbital group  2
 Library entry H      D aug-cc-pVTZ          selected for orbital group  2
 Library entry C      S aug-cc-pVTZ          selected for orbital group  3
 Library entry C      P aug-cc-pVTZ          selected for orbital group  3
 Library entry C      D aug-cc-pVTZ          selected for orbital group  3
 Library entry C      F aug-cc-pVTZ          selected for orbital group  3

1PROGRAM * SEWARD (Integral evaluation for generally contracted gaussian basis sets)     Author: Roland Lindh, 1990

 Geometry written to block  1 of record 700


 Point group  C2v 



 ATOMIC COORDINATES

 NR  ATOM    CHARGE       X              Y              Z

   1  O       8.00    0.024354790    2.196491044    0.000000000
   2  O       8.00    0.024354790   -2.196491044    0.000000000
   3  O       8.00   23.439480743    0.000000000    0.000000000
   4  H       1.00   22.341285299    1.441989540    0.000000000
   5  H       1.00   22.341285299   -1.441989540    0.000000000
   6  C       6.00    0.006876713    0.000000000    0.000000000

 Bond lengths in Bohr (Angstrom)

 1-6  2.196560581  2-6  2.196560581  3-4  1.812558155  3-5  1.812558155
     (1.162369798)     (1.162369798)     (0.959164466)     (0.959164466)

 Bond angles

  1-6-2  179.08818302   4-3-5  105.41539946

 NUCLEAR CHARGE:                   32
 NUMBER OF PRIMITIVE AOS:         322
 NUMBER OF SYMMETRY AOS:          282
 NUMBER OF CONTRACTIONS:          230   (  84A1  +  68B1  +  45B2  +  33A2  )
 NUMBER OF CORE ORBITALS:           4   (   3A1  +   1B1  +   0B2  +   0A2  )
 NUMBER OF VALENCE ORBITALS:       18   (   8A1  +   6B1  +   3B2  +   1A2  )


 NUCLEAR REPULSION ENERGY   76.89882130


 Eigenvalues of metric

         1 0.384E-03 0.420E-03 0.903E-03 0.186E-02 0.318E-02 0.321E-02 0.405E-02 0.540E-02
         2 0.349E-03 0.393E-03 0.923E-03 0.168E-02 0.175E-02 0.348E-02 0.514E-02 0.627E-02
         3 0.318E-02 0.595E-02 0.136E-01 0.297E-01 0.319E-01 0.365E-01 0.590E-01 0.641E-01
         4 0.348E-02 0.124E-01 0.296E-01 0.362E-01 0.561E-01 0.680E-01 0.111E+00 0.140E+00


 Contracted 2-electron integrals neglected if value below      1.0D-11
 AO integral compression algorithm  1   Integral accuracy      1.0D-11

     139.723 MB (compressed) written to integral file ( 29.5%)

     Node minimum: 42.992 MB, node maximum: 51.642 MB


 NUMBER OF SORTED TWO-ELECTRON INTEGRALS:   30156294.     BUFFER LENGTH:  32768
 NUMBER OF SEGMENTS:   2  SEGMENT LENGTH:   15999663      RECORD LENGTH: 524288

 Memory used in sort:      16.56 MW

 SORT1 READ    58978578. AND WROTE     8277610. INTEGRALS IN     24 RECORDS. CPU TIME:     0.92 SEC, REAL TIME:     1.01 SEC
 SORT2 READ    24732587. AND WROTE    90461370. INTEGRALS IN    492 RECORDS. CPU TIME:     0.38 SEC, REAL TIME:     0.49 SEC

 Node minimum:    30151286.  Node maximum:    30156294. integrals

 OPERATOR DM      FOR CENTER  0  COORDINATES:    0.000000    0.000000    0.000000


 **********************************************************************************************************************************
 DATASETS  * FILE   NREC   LENGTH (MB)   RECORD NAMES
              1      18        3.24       500      610      700      900      950      970     1000      129      960     1100   
                                          VAR    BASINP    GEOM    SYMINP    ZMAT    AOBASIS   BASIS     P2S    ABASIS      S 
                                         1400     1410     1200     1210     1080     1600     1650     1700   
                                           T        V       H0       H01     AOSYM     SMH    MOLCAS    OPER   

 PROGRAMS   *        TOTAL       INT
 CPU TIMES  *         2.63      2.56
 REAL TIME  *         3.00 SEC
 DISK USED  *       428.96 MB      
 GA USED    *         0.00 MB       (max)       0.00 MB       (current)
 **********************************************************************************************************************************

1PROGRAM * RHF-SCF (CLOSED SHELL)       Authors: W. Meyer, H.-J. Werner


 NUMBER OF ELECTRONS:      16+   16-
 CONVERGENCE THRESHOLDS:    1.00E-05 (Density)    1.00E-07 (Energy)
 MAX. NUMBER OF ITERATIONS:       60
 INTERPOLATION TYPE:            DIIS
 INTERPOLATION STEPS:              2 (START)      1 (STEP)
 LEVEL SHIFTS:                  0.00 (CLOSED)  0.00 (OPEN) 



 Orbital guess generated from atomic densities. Full valence occupancy:   11   7   3   1

 Molecular orbital dump at record        2100.2

 Initial alpha occupancy:   8   5   2   1
 Initial beta  occupancy:   8   5   2   1
 Wave function symmetry:    1

 ITERATION    DDIFF          GRAD             ENERGY        2-EL.EN.            DIPOLE MOMENTS         DIIS
    1      0.000D+00      0.000D+00      -263.66021254    349.123511   -1.15213    0.00000    0.00000    0
    2      0.000D+00      0.881D-02      -263.72545813    344.638810   -0.67321    0.00000    0.00000    1
    3      0.141D-01      0.599D-02      -263.76888363    347.181407   -0.78992    0.00000    0.00000    2
    4      0.583D-02      0.563D-03      -263.76937924    346.967403   -0.79393    0.00000    0.00000    3
    5      0.690D-03      0.164D-03      -263.76943729    346.971230   -0.78843    0.00000    0.00000    4
    6      0.256D-03      0.660D-04      -263.76944445    346.985408   -0.78916    0.00000    0.00000    5
    7      0.847D-04      0.162D-04      -263.76944518    346.977167   -0.78871    0.00000    0.00000    6
    8      0.278D-04      0.356D-05      -263.76944523    346.978461   -0.78871    0.00000    0.00000    7
    9      0.760D-05      0.119D-05      -263.76944524    346.978279   -0.78868    0.00000    0.00000    0

 Final occupancy:   8   5   2   1

 !RHF STATE 1.1 Energy               -263.769445235644
 Nuclear energy                        76.89882130
 One-electron energy                 -514.15740601
 Two-electron energy                  173.48913947
 Virial quotient                       -1.00184551
 !RHF STATE 1.1 Dipole moment          -0.78868001     0.00000000     0.00000000
 Dipole moment /Debye                  -2.00449335     0.00000000     0.00000000

 Orbital energies:

         1.1          2.1          3.1          4.1          5.1          6.1          7.1          8.1          9.1         10.1
    -20.654894   -20.567271   -11.463743    -1.532413    -1.352095    -0.802759    -0.716517    -0.582944     0.029284     0.045893

         1.2          2.2          3.2          4.2          5.2          6.2          7.2
    -20.654940    -1.479365    -0.744959    -0.718659    -0.546212     0.047504     0.077511

         1.3          2.3          3.3          4.3
     -0.716512    -0.510065     0.071532     0.158350

         1.4          2.4          3.4
     -0.546213     0.162425     0.264789


 **********************************************************************************************************************************
 DATASETS  * FILE   NREC   LENGTH (MB)   RECORD NAMES
              1      18        3.25       500      610      700      900      950      970     1000      129      960     1100   
                                          VAR    BASINP    GEOM    SYMINP    ZMAT    AOBASIS   BASIS     P2S    ABASIS      S 
                                         1400     1410     1200     1210     1080     1600     1650     1700   
                                           T        V       H0       H01     AOSYM     SMH    MOLCAS    OPER   

              2       3        0.68       700     1000     2100   
                                         GEOM     BASIS     RHF  

 PROGRAMS   *        TOTAL        HF       INT
 CPU TIMES  *         3.60      0.97      2.56
 REAL TIME  *         4.04 SEC
 DISK USED  *       446.47 MB      
 SF USED    *         0.06 MB      
 GA USED    *         0.00 MB       (max)       0.00 MB       (current)
 **********************************************************************************************************************************


1PROGRAM * CCSD (Closed-shell coupled cluster)     Authors: C. Hampel, H.-J. Werner, 1991, M. Deegan, P.J. Knowles, 1992

                                  CCSD-F12 implementation by  H.-J. Werner, 2007

                   Density fitting integral evaluation by F.R. Manby, 2003,2007, G. Knizia, 2010

 Basis set CC-PVTZ/JKFIT generated.      Number of basis functions:   376 
 Basis set AUG-CC-PVTZ/MP2FIT generated. Number of basis functions:   516 

 Convergence thresholds:  THRVAR = 1.00D-08  THRDEN = 1.00D-06

 CCSD(T)     terms to be evaluated (factor= 1.000)


 Number of core orbitals:           4 (   3   1   0   0 )
 Number of closed-shell orbitals:  12 (   5   4   2   1 )
 Number of external orbitals:     214 (  76  63  43  32 )

 Molecular orbitals read from record     2100.2  Type=RHF/CANONICAL (state 1.1)

 MP2-F12 correlation treatment (H.-J. Werner, 2006)
 --------------------------------------------------

 Using MP2-F12 with ansatz 3C(FIX)

 Using projected zeroth-order Hamiltonian (+Z)

 FOCKRIB=T FOCKRIC=T FOCKRIP=T CABSP=T CABSA=T CABSK=T CABSF=T GBC=F EBC=F DMAT=T NOFIK=T NOPAO=1 SOLVE=-1  USEPAO=0
 EXCH_A= T EXCH_B= F EXCH_C= F EXCH_P= F
 
 Geminal basis:    OPTFULL  GEM_TYPE=SLATER  BETA=1.0  NGEM=6

 Optimizing Gaussian exponents for each gem_beta

 Geminal optimization for beta= 1.0000
 Weight function:   m=0, omega= 1.4646

 Augmented Hessian optimization of geminal fit. Trust ratio= 0.40000
 Convergence reached after   2 iterations. Final gradient= 8.24D-16, Step= 4.32D-06, Delta= 1.28D-09
 
 Alpha:                 0.19532     0.81920     2.85917     9.50073    35.69989   197.79328
 Coeff:                 0.27070     0.30552     0.18297     0.10986     0.06810     0.04224
 

 Symmetry turned off. Reference energy:       -263.769445235644

 All pairs explicitly correlated. Number of r12-pairs:           78
 
 AO(A)-basis ORBITAL           loaded. Number of functions:     230
 RI(R)-basis CC-PVTZ/JKFIT     loaded. Number of functions:     376
 DF-basis CC-PVTZ/JKFIT        loaded. Number of functions:     376

 Screening thresholds:   THRAO=  1.00D-10  THRMO=  1.00D-09  THRPROD=  1.00D-09
                         THRSW=  1.00D-05  THROV=  1.00D-12  THRF12=   1.00D-08

 CPU time for Fock operators                      0.93 sec
 
 Construction of ABS:
 Smallest eigenvalue of S          2.57E-04  (threshold= 1.00E-08)
 Ratio eigmin/eigmax               1.83E-06  (threshold= 1.00E-09)
 Smallest eigenvalue of S kept     2.57E-04  (threshold= 2.57E-04, 0 functions deleted, 376 kept)
 
 Construction of CABS:
 Smallest eigenvalue of S          2.30E-08  (threshold= 1.00E-08)
 Ratio eigmin/eigmax               2.30E-08  (threshold= 1.00E-09)
 Smallest eigenvalue of S kept     2.30E-08  (threshold= 2.30E-08, 0 functions deleted, 376 kept)
 
 CPU time for CABS singles                        0.18 sec

 CABS-singles contribution of  -0.01591935 patched into reference energy.
 New reference energy        -263.78536459
 
 AO(A)-basis ORBITAL           loaded. Number of functions:     230
 RI(R)-basis CC-PVTZ/JKFIT     loaded. Number of functions:     376
 DF-basis AUG-CC-PVTZ/MP2FIT   loaded. Number of functions:     516

 Screening thresholds:   THRAO=  1.00D-10  THRMO=  1.00D-09  THRPROD=  1.00D-09
                         THRSW=  1.00D-05  THROV=  1.00D-12  THRF12=   1.00D-08

 CPU time for 3-index integral evaluation         1.61 sec
 CPU time for first  half transformation          0.20 sec ( 7400.2 MFLOP/sec)
 CPU time for second half transformation          0.02 sec ( 3650.0 MFLOP/sec)
 CPU time for sorting                             0.11 sec
 CPU time for fitting                             0.05 sec (27861.0 MFLOP/sec)
 CPU time for tilde quantities                    0.07 sec (26412.6 MFLOP/sec)
 CPU time for assembly                            0.82 sec (28814.4 MFLOP/sec)
 CPU time for tranop_f12                          0.93 sec (32574.5 MFLOP/sec)
 CPU time for f12 integrals (total)               5.99 sec
 F12-matrices built in  3 passes.
 F12-matrices built in  3 passes.
 F12-matrices built in  3 passes.
 F12-matrices built in  3 passes.
 FC-matrix built in  3 passes.
 CPU time for f12 matrices (total)                0.53 sec

 Diagonal F12 approximation with fixed coefficients:  TSING= 0.500,  TTRIP= 0.250 (scaled by -1/beta)

 DF-MP2-F12 energy corrections:
 ------------------------------
 Approx.                                    Singlet             Triplet             Total
 DF-MP2-F12/3*C(DX,FIX)                -0.097450658566     -0.016932708421     -0.114383366986
 DF-MP2-F12/3*C(FIX)                   -0.079869315889     -0.013395595186     -0.093264911075
 DF-MP2-F12/3C(FIX)                    -0.080230329786     -0.013418622188     -0.093648951974

 DF-MP2-F12 correlation energies:
 --------------------------------
 Approx.                                    Singlet             Triplet             Ecorr            Total Energy
 DF-MP2                                -0.537761601011     -0.343096379923     -0.880857980933   -264.666222566788
 DF-MP2-F12/3*C(DX,FIX)                -0.635212259576     -0.360029088343     -0.995241347919   -264.780605933775
 DF-MP2-F12/3*C(FIX)                   -0.617630916899     -0.356491975108     -0.974122892008   -264.759487477863
 DF-MP2-F12/3C(FIX)                    -0.617991930797     -0.356515002111     -0.974506932907   -264.759871518762

 SCS-DF-MP2 energies (F_SING= 1.20000  F_TRIP= 0.62222  F_PARALLEL= 0.33333):
 ----------------------------------------------------------------------------
 SCS-DF-MP2                            -0.858796113165   -264.644160699020
 SCS-DF-MP2-F12/3*C(DX,FIX)            -0.986272810905   -264.771637396760
 SCS-DF-MP2-F12/3*C(FIX)               -0.962974329236   -264.748338915091
 SCS-DF-MP2-F12/3C(FIX)                -0.963421873825   -264.748786459680

 Symmetry restored.
 Symmetry transformation completed.

 Number of N-1 electron functions:              12
 Number of N-2 electron functions:              78
 Number of singly external CSFs:               750
 Number of doubly external CSFs:            844332
 Total number of CSFs:                      845083

 Pair and operator lists are different

 Length of J-op  integral file:             462.28 MB
 Length of K-op  integral file:             502.25 MB
 Length of 3-ext integral record:             0.00 MB

 Memory could be reduced to 38.71 Mwords without degradation in triples

 Integral transformation finished. Total CPU:   1.40 sec, npass=  1  Memory used:   7.09 MW

 Reference energy:                   -263.78536459

 Adding F12 terms to K(Cij), methodcc=6,  factor=1.0

 ITER.      SQ.NORM     CORR.ENERGY   TOTAL ENERGY   ENERGY CHANGE        DEN1      VAR(S)    VAR(P)  DIIS     TIME
   1      1.20219339    -0.86279542  -264.64816000     0.01807906     0.04672814  0.72D-02  0.56D-02  1  1    10.32
   2      1.21651436    -0.85856472  -264.64392931     0.00423070    -0.02016284  0.86D-04  0.59D-03  2  2    11.27
   3      1.22187920    -0.85866100  -264.64402559    -0.00009628    -0.00236552  0.13D-03  0.32D-04  3  3    12.23
   4      1.22468315    -0.85853292  -264.64389751     0.00012808    -0.00141212  0.76D-05  0.41D-05  4  4    13.17
   5      1.22571426    -0.85849518  -264.64385976     0.00003774    -0.00036676  0.56D-06  0.29D-06  5  5    14.13
   6      1.22587659    -0.85846829  -264.64383288     0.00002689    -0.00000807  0.40D-07  0.24D-07  6  6    15.08
   7      1.22590597    -0.85846587  -264.64383045     0.00000242    -0.00000622  0.25D-08  0.40D-08  6  4    16.04
   8      1.22590625    -0.85846538  -264.64382997     0.00000049     0.00000195  0.39D-09  0.27D-09  6  1    16.99
   9      1.22590687    -0.85846545  -264.64383003    -0.00000007     0.00000056  0.26D-10  0.21D-10  6  2    17.94

 Norm of t1 vector:      0.10600045      S-energy:    -0.00000002      T1 diagnostic:  0.01529985
                                                                       D1 diagnostic:  0.04495681

 Adding energy correction from Wij-K(Fij), methodcc=6  factor=1.0
 
  CCSD correlation energy              -0.858465445798
  MP2-F12 correction (uncoupled)       -0.092491794847
  C*T doubles correction               -0.001475485782
  f12b correction                       0.015408335434


 Total CPU time for triples:     36.49 sec


 RESULTS
 =======

  Reference energy                   -263.769445235643
  F12 singles correction               -0.015919350212

 F12 singles corrections added to reference energy

  New reference energy               -263.785364585855

  F12a singlet correction              -0.080429885972
  F12a triplet correction              -0.013537394656
  F12a total correction                -0.093967280628

 F12a corrections for ansatz F12/3C(FIX) added to CCSD energy
 
  CCSD-F12a singlet pair energy        -0.641928434011
  CCSD-F12a triplet pair energy        -0.310504269565
  CCSD-F12a correlation energy         -0.952432726427

  Triples (T) contribution             -0.037650811488
  Total correlation energy             -0.990083537915

  CCSD-F12a total energy             -264.737797312282
  CCSD[T]-F12a energy                -264.777994133509
  CCSD-T-F12a energy                 -264.774509812726
 !CCSD(T)-F12a total energy          -264.775448123770

 F12b corrections for ansatz F12/3C(FIX) added to CCSD(T)-F12a energy

  CCSD-F12b singlet pair energy        -0.627743440018
  CCSD-F12b triplet pair energy        -0.309280928123
  CCSD-F12b correlation energy         -0.937024390993

  Triples (T) contribution             -0.037650811488
  Total correlation energy             -0.974675202480

  CCSD-F12b total energy             -264.722388976848
  CCSD[T]-F12b energy                -264.762585798075
  CCSD-T-F12b energy                 -264.759101477292
 !CCSD(T)-F12b total energy          -264.760039788335

 Timing summary (sec):

 STEP                 CPU(USER)    SYS     CPU(TOT)    WALL
 Transformation          1.41      0.20      1.61      1.62
 CCSD iterations         8.51      0.65      9.16      9.21
 Triples                36.49      1.06     37.55     37.54
 MP2-F12                 8.03      1.20      9.23      9.22
 F12b energy             0.54      0.01      0.55      0.95

 Program statistics:

 Available memory in ccsd:                99998934
 Min. memory needed in ccsd:               2252999
 Max. memory used in ccsd:                 3011949
 Max. memory used in cckext:               2777209 (10 integral passes)



 **********************************************************************************************************************************
 DATASETS  * FILE   NREC   LENGTH (MB)   RECORD NAMES
              1      20      137.17       500      610      700      900      950      970     1000      129      960     1100   
                                          VAR    BASINP    GEOM    SYMINP    ZMAT    AOBASIS   BASIS     P2S    ABASIS      S 
                                         1400     1410     1200     1210     1080     1600     1650     1700      960(1)  1380   
                                           T        V       H0       H01     AOSYM     SMH    MOLCAS    OPER    ABASIS    JKOP   

              2       5        0.98       700     1000     2100     7360     7350   
                                         GEOM     BASIS     RHF    F12ABS    EF12   

 PROGRAMS   *        TOTAL   CCSD(T)        HF       INT
 CPU TIMES  *        58.73     55.13      0.97      2.56
 REAL TIME  *        62.84 SEC
 DISK USED  *       668.20 MB      
 SF USED    *         1.34 GB      
 GA USED    *         2.40 MB       (max)       0.00 MB       (current)
 **********************************************************************************************************************************

     CCSD(T)-F12        HF-SCF  
   -264.76003979   -263.76944524
 **********************************************************************************************************************************
 Variable memory released
