
 Primary working directories    : /scratch/kee
 Secondary working directories  : /scratch/kee
 Wavefunction directory         : /home/kee/wfu/
 Main file repository           : /scratch/kee/

 ARCHNAME  : Linux/x86_64
 FC        : /opt/intel/composer_xe_2015.0.090/bin/intel64/ifort
 FCVERSION : 15.0.0
 BLASLIB   : -L/opt/intel/mkl/lib/intel64 -lmkl_intel_ilp64 -lmkl_sequential -lmkl_core
 id        : emory

 Nodes     nprocs
 node23       3
 Number of processes for MPI-2 version of Molpro:   nprocs(total)=    4   nprocs(compute)=    3   nprocs(helper)=    1
 ga_uses_ma=false, calling ma_init with nominal heap.
 GA-space will be limited to   8.0 MW (determined by -G option)

 Using customized tuning parameters: mindgm=7; mindgv=32; mindgc=1; mindgr=1; noblas=0; mincuda=1000; minvec=7
 default implementation of scratch files=sf  

 ***,co2h2o
 memory,100,m
 basis avtz
 geomtype = xyz
 geometry = {
 6
       0.00000000
 O     0.02747900    1.16001200    0.00000000
 O    -0.00936500   -1.16396300    0.00000000
 O     4.07533428   -0.01914995    0.00000000
 H     4.46442928    0.42212405    0.75746400
 H     4.46442928    0.42212405   -0.75746400
 C     0.02536600   -0.00312200    0.00000000
 }
 hf
 ccsd(t)-f12
 ---

 Variables initialized (665), CPU time= 0.01 sec
 Commands  initialized (462), CPU time= 0.01 sec, 486 directives.
 Default parameters read. Elapsed time= 0.06 sec

 Checking input...
 Passed
1


                                         ***  PROGRAM SYSTEM MOLPRO  ***
                         Copyright, University College Cardiff Consultants Limited, 2008

                                    Version 2010.1 linked 9 Dec 2014 15:06:28 


 **********************************************************************************************************************************
 LABEL *   co2h2o                                                                        
 Linux-2.6.32-504.el6.x86_64/node23(x86_64) 64 bit mpp version                           DATE: 15-Dec-16          TIME: 00:09:56  
 **********************************************************************************************************************************

 Patch level:      19
 **********************************************************************************************************************************

 Variable memory set to  100000000 words,  buffer space   230000 words

 SETTING BASIS          =    AVTZ
 SETTING GEOMTYPE       =    XYZ

Geometry recognized as XYZ



 Recomputing integrals since basis changed


 Using spherical harmonics

 Library entry O      S aug-cc-pVTZ          selected for orbital group  1
 Library entry O      P aug-cc-pVTZ          selected for orbital group  1
 Library entry O      D aug-cc-pVTZ          selected for orbital group  1
 Library entry O      F aug-cc-pVTZ          selected for orbital group  1
 Library entry H      S aug-cc-pVTZ          selected for orbital group  2
 Library entry H      P aug-cc-pVTZ          selected for orbital group  2
 Library entry H      D aug-cc-pVTZ          selected for orbital group  2
 Library entry C      S aug-cc-pVTZ          selected for orbital group  3
 Library entry C      P aug-cc-pVTZ          selected for orbital group  3
 Library entry C      D aug-cc-pVTZ          selected for orbital group  3
 Library entry C      F aug-cc-pVTZ          selected for orbital group  3

1PROGRAM * SEWARD (Integral evaluation for generally contracted gaussian basis sets)     Author: Roland Lindh, 1990

 Geometry written to block  1 of record 700


 Point group  Cs  



 ATOMIC COORDINATES

 NR  ATOM    CHARGE       X              Y              Z

   1  O       8.00    0.051927784    2.192104989    0.000000000
   2  O       8.00   -0.017697285   -2.199571297    0.000000000
   3  O       8.00    7.701265683   -0.036188161    0.000000000
   4  H       1.00    8.436548672    0.797698848    1.431399514
   5  H       1.00    8.436548672    0.797698848   -1.431399514
   6  C       6.00    0.047934793   -0.005899725    0.000000000

 Bond lengths in Bohr (Angstrom)

 1-6  2.198008341  2-6  2.194653170  3-4  1.812432947  3-5  1.812432947
     (1.163135919)     (1.161360439)     (0.959098208)     (0.959098208)

 Bond angles

  1-6-2  178.39037465   4-3-5  104.32746287

 NUCLEAR CHARGE:                   32
 NUMBER OF PRIMITIVE AOS:         322
 NUMBER OF SYMMETRY AOS:          282
 NUMBER OF CONTRACTIONS:          230   ( 143A'  +  87A"  )
 NUMBER OF CORE ORBITALS:           4   (   4A'  +   0A"  )
 NUMBER OF VALENCE ORBITALS:       18   (  13A'  +   5A"  )


 NUCLEAR REPULSION ENERGY   94.76753322


 Eigenvalues of metric

         1 0.345E-03 0.350E-03 0.364E-03 0.893E-03 0.913E-03 0.147E-02 0.174E-02 0.286E-02
         2 0.390E-03 0.161E-02 0.316E-02 0.347E-02 0.478E-02 0.620E-02 0.979E-02 0.122E-01


 Contracted 2-electron integrals neglected if value below      1.0D-11
 AO integral compression algorithm  1   Integral accuracy      1.0D-11

     588.513 MB (compressed) written to integral file ( 34.7%)

     Node minimum: 145.752 MB, node maximum: 272.368 MB


 NUMBER OF SORTED TWO-ELECTRON INTEGRALS:   59530350.     BUFFER LENGTH:  32768
 NUMBER OF SEGMENTS:   4  SEGMENT LENGTH:   15999984      RECORD LENGTH: 524288

 Memory used in sort:      16.56 MW

 SORT1 READ   212043035. AND WROTE    44909982. INTEGRALS IN    131 RECORDS. CPU TIME:     4.71 SEC, REAL TIME:     5.37 SEC
 SORT2 READ   135767182. AND WROTE   178576926. INTEGRALS IN   3117 RECORDS. CPU TIME:     1.36 SEC, REAL TIME:     1.83 SEC

 Node minimum:    59520934.  Node maximum:    59530350. integrals

 OPERATOR DM      FOR CENTER  0  COORDINATES:    0.000000    0.000000    0.000000


 **********************************************************************************************************************************
 DATASETS  * FILE   NREC   LENGTH (MB)   RECORD NAMES
              1      18        3.71       500      610      700      900      950      970     1000      129      960     1100   
                                          VAR    BASINP    GEOM    SYMINP    ZMAT    AOBASIS   BASIS     P2S    ABASIS      S 
                                         1400     1410     1200     1210     1080     1600     1650     1700   
                                           T        V       H0       H01     AOSYM     SMH    MOLCAS    OPER   

 PROGRAMS   *        TOTAL       INT
 CPU TIMES  *        11.62     11.51
 REAL TIME  *        13.34 SEC
 DISK USED  *         2.26 GB      
 GA USED    *         0.00 MB       (max)       0.00 MB       (current)
 **********************************************************************************************************************************

1PROGRAM * RHF-SCF (CLOSED SHELL)       Authors: W. Meyer, H.-J. Werner


 NUMBER OF ELECTRONS:      16+   16-
 CONVERGENCE THRESHOLDS:    1.00E-05 (Density)    1.00E-07 (Energy)
 MAX. NUMBER OF ITERATIONS:       60
 INTERPOLATION TYPE:            DIIS
 INTERPOLATION STEPS:              2 (START)      1 (STEP)
 LEVEL SHIFTS:                  0.00 (CLOSED)  0.00 (OPEN) 



 Orbital guess generated from atomic densities. Full valence occupancy:   17   5

 Molecular orbital dump at record        2100.2

 Initial alpha occupancy:  13   3
 Initial beta  occupancy:  13   3
 Wave function symmetry:    1

 ITERATION    DDIFF          GRAD             ENERGY        2-EL.EN.            DIPOLE MOMENTS         DIIS
    1      0.000D+00      0.000D+00      -263.66244585    385.375580    0.80100    0.84388    0.00000    0
    2      0.000D+00      0.640D-02      -263.72735207    380.755780    0.51251    0.47478    0.00000    1
    3      0.103D-01      0.433D-02      -263.76991408    383.301862    0.58348    0.56946    0.00000    2
    4      0.421D-02      0.411D-03      -263.77040964    383.095253    0.58527    0.56971    0.00000    3
    5      0.495D-03      0.120D-03      -263.77046795    383.094229    0.58236    0.56817    0.00000    4
    6      0.186D-03      0.490D-04      -263.77047534    383.109383    0.58287    0.56719    0.00000    5
    7      0.620D-04      0.121D-04      -263.77047608    383.101122    0.58263    0.56760    0.00000    6
    8      0.205D-04      0.321D-05      -263.77047613    383.101971    0.58262    0.56711    0.00000    7
    9      0.563D-05      0.213D-05      -263.77047614    383.102171    0.58262    0.56747    0.00000    0

 Final occupancy:  13   3

 !RHF STATE 1.1 Energy               -263.770476139876
 Nuclear energy                        94.76753322
 One-electron energy                 -550.08909480
 Two-electron energy                  191.55108545
 Virial quotient                       -1.00184328
 !RHF STATE 1.1 Dipole moment           0.58261792     0.56746840     0.00000000
 Dipole moment /Debye                   1.48077006     1.44226634     0.00000000

 Orbital energies:

         1.1          2.1          3.1          4.1          5.1          6.1          7.1          8.1          9.1         10.1
    -20.643886   -20.643708   -20.572058   -11.452905    -1.521409    -1.468390    -1.357296    -0.792064    -0.734384    -0.705185

        11.1         12.1         13.1         14.1         15.1
     -0.589855    -0.535280    -0.514955     0.027399     0.059385

         1.2          2.2          3.2          4.2          5.2
     -0.720951    -0.705675    -0.535461     0.046088     0.084949


 **********************************************************************************************************************************
 DATASETS  * FILE   NREC   LENGTH (MB)   RECORD NAMES
              1      18        3.72       500      610      700      900      950      970     1000      129      960     1100   
                                          VAR    BASINP    GEOM    SYMINP    ZMAT    AOBASIS   BASIS     P2S    ABASIS      S 
                                         1400     1410     1200     1210     1080     1600     1650     1700   
                                           T        V       H0       H01     AOSYM     SMH    MOLCAS    OPER   

              2       3        0.94       700     1000     2100   
                                         GEOM     BASIS     RHF  

 PROGRAMS   *        TOTAL        HF       INT
 CPU TIMES  *        18.68      7.06     11.51
 REAL TIME  *        20.74 SEC
 DISK USED  *         2.29 GB      
 SF USED    *         0.11 MB      
 GA USED    *         0.00 MB       (max)       0.00 MB       (current)
 **********************************************************************************************************************************


1PROGRAM * CCSD (Closed-shell coupled cluster)     Authors: C. Hampel, H.-J. Werner, 1991, M. Deegan, P.J. Knowles, 1992

                                  CCSD-F12 implementation by  H.-J. Werner, 2007

                   Density fitting integral evaluation by F.R. Manby, 2003,2007, G. Knizia, 2010

 Basis set CC-PVTZ/JKFIT generated.      Number of basis functions:   376 
 Basis set AUG-CC-PVTZ/MP2FIT generated. Number of basis functions:   516 

 Convergence thresholds:  THRVAR = 1.00D-08  THRDEN = 1.00D-06

 CCSD(T)     terms to be evaluated (factor= 1.000)


 Number of core orbitals:           4 (   4   0 )
 Number of closed-shell orbitals:  12 (   9   3 )
 Number of external orbitals:     214 ( 130  84 )

 Molecular orbitals read from record     2100.2  Type=RHF/CANONICAL (state 1.1)

 MP2-F12 correlation treatment (H.-J. Werner, 2006)
 --------------------------------------------------

 Using MP2-F12 with ansatz 3C(FIX)

 Using projected zeroth-order Hamiltonian (+Z)

 FOCKRIB=T FOCKRIC=T FOCKRIP=T CABSP=T CABSA=T CABSK=T CABSF=T GBC=F EBC=F DMAT=T NOFIK=T NOPAO=1 SOLVE=-1  USEPAO=0
 EXCH_A= T EXCH_B= F EXCH_C= F EXCH_P= F
 
 Geminal basis:    OPTFULL  GEM_TYPE=SLATER  BETA=1.0  NGEM=6

 Optimizing Gaussian exponents for each gem_beta

 Geminal optimization for beta= 1.0000
 Weight function:   m=0, omega= 1.4646

 Augmented Hessian optimization of geminal fit. Trust ratio= 0.40000
 Convergence reached after   2 iterations. Final gradient= 8.24D-16, Step= 4.32D-06, Delta= 1.28D-09
 
 Alpha:                 0.19532     0.81920     2.85917     9.50073    35.69989   197.79328
 Coeff:                 0.27070     0.30552     0.18297     0.10986     0.06810     0.04224
 

 Symmetry turned off. Reference energy:       -263.770476139877

 All pairs explicitly correlated. Number of r12-pairs:           78
 
 AO(A)-basis ORBITAL           loaded. Number of functions:     230
 RI(R)-basis CC-PVTZ/JKFIT     loaded. Number of functions:     376
 DF-basis CC-PVTZ/JKFIT        loaded. Number of functions:     376

 Screening thresholds:   THRAO=  1.00D-10  THRMO=  1.00D-09  THRPROD=  1.00D-09
                         THRSW=  1.00D-05  THROV=  1.00D-12  THRF12=   1.00D-08

 CPU time for Fock operators                      1.55 sec
 
 Construction of ABS:
 Smallest eigenvalue of S          2.57E-04  (threshold= 1.00E-08)
 Ratio eigmin/eigmax               1.83E-06  (threshold= 1.00E-09)
 Smallest eigenvalue of S kept     2.57E-04  (threshold= 2.57E-04, 0 functions deleted, 376 kept)
 
 Construction of CABS:
 Smallest eigenvalue of S          2.29E-08  (threshold= 1.00E-08)
 Ratio eigmin/eigmax               2.29E-08  (threshold= 1.00E-09)
 Smallest eigenvalue of S kept     2.29E-08  (threshold= 2.29E-08, 0 functions deleted, 376 kept)
 
 CPU time for CABS singles                        0.17 sec

 CABS-singles contribution of  -0.01593736 patched into reference energy.
 New reference energy        -263.78641350
 
 AO(A)-basis ORBITAL           loaded. Number of functions:     230
 RI(R)-basis CC-PVTZ/JKFIT     loaded. Number of functions:     376
 DF-basis AUG-CC-PVTZ/MP2FIT   loaded. Number of functions:     516

 Screening thresholds:   THRAO=  1.00D-10  THRMO=  1.00D-09  THRPROD=  1.00D-09
                         THRSW=  1.00D-05  THROV=  1.00D-12  THRF12=   1.00D-08

 CPU time for 3-index integral evaluation         3.83 sec
 CPU time for first  half transformation          0.29 sec (10598.6 MFLOP/sec)
 CPU time for second half transformation          0.07 sec ( 1602.4 MFLOP/sec)
 CPU time for sorting                             0.17 sec
 CPU time for fitting                             0.06 sec (26838.6 MFLOP/sec)
 CPU time for tilde quantities                    0.16 sec (12321.0 MFLOP/sec)
 CPU time for assembly                            1.03 sec (26330.9 MFLOP/sec)
 CPU time for tranop_f12                          1.18 sec (29299.6 MFLOP/sec)
 CPU time for f12 integrals (total)               9.11 sec
 F12-matrices built in  3 passes.
 F12-matrices built in  3 passes.
 F12-matrices built in  3 passes.
 F12-matrices built in  3 passes.
 FC-matrix built in  3 passes.
 CPU time for f12 matrices (total)                0.68 sec

 Diagonal F12 approximation with fixed coefficients:  TSING= 0.500,  TTRIP= 0.250 (scaled by -1/beta)

 DF-MP2-F12 energy corrections:
 ------------------------------
 Approx.                                    Singlet             Triplet             Total
 DF-MP2-F12/3*C(DX,FIX)                -0.097394284438     -0.016928713573     -0.114322998011
 DF-MP2-F12/3*C(FIX)                   -0.079820299731     -0.013394809558     -0.093215109288
 DF-MP2-F12/3C(FIX)                    -0.080184345774     -0.013420348084     -0.093604693858

 DF-MP2-F12 correlation energies:
 --------------------------------
 Approx.                                    Singlet             Triplet             Ecorr            Total Energy
 DF-MP2                                -0.537795239301     -0.343262625804     -0.881057865105   -264.667471366463
 DF-MP2-F12/3*C(DX,FIX)                -0.635189523739     -0.360191339377     -0.995380863116   -264.781794364474
 DF-MP2-F12/3*C(FIX)                   -0.617615539032     -0.356657435361     -0.974272974393   -264.760686475751
 DF-MP2-F12/3C(FIX)                    -0.617979585075     -0.356682973888     -0.974662558963   -264.761076060321

 SCS-DF-MP2 energies (F_SING= 1.20000  F_TRIP= 0.62222  F_PARALLEL= 0.33333):
 ----------------------------------------------------------------------------
 SCS-DF-MP2                            -0.858939920995   -264.645353422353
 SCS-DF-MP2-F12/3*C(DX,FIX)            -0.986346484099   -264.772759985457
 SCS-DF-MP2-F12/3*C(FIX)               -0.963058828841   -264.749472330199
 SCS-DF-MP2-F12/3C(FIX)                -0.963511574732   -264.749925076090

 Symmetry restored.
 Symmetry transformation completed.

 Number of N-1 electron functions:              12
 Number of N-2 electron functions:              78
 Number of singly external CSFs:              1422
 Number of doubly external CSFs:           1668984
 Total number of CSFs:                     1670407

 Pair and operator lists are different

 Length of J-op  integral file:             466.33 MB
 Length of K-op  integral file:             525.76 MB
 Length of 3-ext integral record:             0.00 MB

 Memory could be reduced to 76.19 Mwords without degradation in triples

 Integral transformation finished. Total CPU:   4.81 sec, npass=  1  Memory used:  26.50 MW

 Reference energy:                   -263.78641350

 Adding F12 terms to K(Cij), methodcc=6,  factor=1.0

 ITER.      SQ.NORM     CORR.ENERGY   TOTAL ENERGY   ENERGY CHANGE        DEN1      VAR(S)    VAR(P)  DIIS     TIME
   1      1.20220716    -0.86300297  -264.64941648     0.01807057     0.04668732  0.72D-02  0.56D-02  1  1    20.49
   2      1.21652671    -0.85879190  -264.64520540     0.00421107    -0.02015068  0.87D-04  0.59D-03  2  2    23.73
   3      1.22189988    -0.85889258  -264.64530609    -0.00010068    -0.00236873  0.13D-03  0.32D-04  3  3    26.87
   4      1.22470889    -0.85876481  -264.64517831     0.00012777    -0.00141348  0.76D-05  0.41D-05  4  4    31.28
   5      1.22574099    -0.85872721  -264.64514071     0.00003760    -0.00036639  0.56D-06  0.29D-06  5  5    35.04
   6      1.22590382    -0.85870032  -264.64511382     0.00002689    -0.00000808  0.41D-07  0.24D-07  6  6    39.25
   7      1.22593346    -0.85869789  -264.64511139     0.00000243    -0.00000625  0.27D-08  0.40D-08  6  4    42.95
   8      1.22593388    -0.85869739  -264.64511090     0.00000050     0.00000192  0.41D-09  0.28D-09  6  1    46.79
   9      1.22593452    -0.85869746  -264.64511096    -0.00000007     0.00000056  0.29D-10  0.23D-10  6  2    51.00

 Norm of t1 vector:      0.10607312      S-energy:     0.00000065      T1 diagnostic:  0.01531034
                                                                       D1 diagnostic:  0.04506792

 Adding energy correction from Wij-K(Fij), methodcc=6  factor=1.0
 
  CCSD correlation energy              -0.858697460323
  MP2-F12 correction (uncoupled)       -0.092448247180
  C*T doubles correction               -0.001472497844
  f12b correction                       0.015404118337


 Total CPU time for triples:     90.65 sec


 RESULTS
 =======

  Reference energy                   -263.770476139877
  F12 singles correction               -0.015937361482

 F12 singles corrections added to reference energy

  New reference energy               -263.786413501358

  F12a singlet correction              -0.080382925631
  F12a triplet correction              -0.013537819393
  F12a total correction                -0.093920745024

 F12a corrections for ansatz F12/3C(FIX) added to CCSD energy
 
  CCSD-F12a singlet pair energy        -0.641907187418
  CCSD-F12a triplet pair energy        -0.310711663432
  CCSD-F12a correlation energy         -0.952618205347

  Triples (T) contribution             -0.037686957580
  Total correlation energy             -0.990305162927

  CCSD-F12a total energy             -264.739031706705
  CCSD[T]-F12a energy                -264.779262569869
  CCSD-T-F12a energy                 -264.775781959721
 !CCSD(T)-F12a total energy          -264.776718664286

 F12b corrections for ansatz F12/3C(FIX) added to CCSD(T)-F12a energy

  CCSD-F12b singlet pair energy        -0.627726645355
  CCSD-F12b triplet pair energy        -0.309488087158
  CCSD-F12b correlation energy         -0.937214087009

  Triples (T) contribution             -0.037686957580
  Total correlation energy             -0.974901044590

  CCSD-F12b total energy             -264.723627588368
  CCSD[T]-F12b energy                -264.763858451531
  CCSD-T-F12b energy                 -264.760377841383
 !CCSD(T)-F12b total energy          -264.761314545948

 Timing summary (sec):

 STEP                 CPU(USER)    SYS     CPU(TOT)    WALL
 Transformation          4.84      0.59      5.43      5.43
 CCSD iterations        34.03      1.82     35.85     36.57
 Triples                90.65      1.80     92.45     92.43
 MP2-F12                12.14      1.42     13.56     13.59
 F12b energy             2.86      0.05      2.91      2.91

 Program statistics:

 Available memory in ccsd:                99998934
 Min. memory needed in ccsd:               4419579
 Max. memory used in ccsd:                 5922321
 Max. memory used in cckext:               6231049 (10 integral passes)



 **********************************************************************************************************************************
 DATASETS  * FILE   NREC   LENGTH (MB)   RECORD NAMES
              1      20      268.24       500      610      700      900      950      970     1000      129      960     1100   
                                          VAR    BASINP    GEOM    SYMINP    ZMAT    AOBASIS   BASIS     P2S    ABASIS      S 
                                         1400     1410     1200     1210     1080     1600     1650     1700      960(1)  1380   
                                           T        V       H0       H01     AOSYM     SMH    MOLCAS    OPER    ABASIS    JKOP   

              2       5        1.51       700     1000     2100     7360     7350   
                                         GEOM     BASIS     RHF    F12ABS    EF12   

 PROGRAMS   *        TOTAL   CCSD(T)        HF       INT
 CPU TIMES  *       163.44    144.75      7.06     11.51
 REAL TIME  *       172.04 SEC
 DISK USED  *         2.72 GB      
 SF USED    *         1.52 GB      
 GA USED    *         2.40 MB       (max)       0.00 MB       (current)
 **********************************************************************************************************************************

     CCSD(T)-F12        HF-SCF  
   -264.76131455   -263.77047614
 **********************************************************************************************************************************
 Variable memory released
