
 Primary working directories    : /scratch/kee
 Secondary working directories  : /scratch/kee
 Wavefunction directory         : /home/kee/wfu/
 Main file repository           : /scratch/kee/

 ARCHNAME  : Linux/x86_64
 FC        : /opt/intel/composer_xe_2015.0.090/bin/intel64/ifort
 FCVERSION : 15.0.0
 BLASLIB   : -L/opt/intel/mkl/lib/intel64 -lmkl_intel_ilp64 -lmkl_sequential -lmkl_core
 id        : emory

 Nodes     nprocs
 node22       3
 Number of processes for MPI-2 version of Molpro:   nprocs(total)=    4   nprocs(compute)=    3   nprocs(helper)=    1
 ga_uses_ma=false, calling ma_init with nominal heap.
 GA-space will be limited to   8.0 MW (determined by -G option)

 Using customized tuning parameters: mindgm=7; mindgv=32; mindgc=1; mindgr=1; noblas=0; mincuda=1000; minvec=7
 default implementation of scratch files=sf  

 ***,co2h2o
 memory,100,m
 basis avtz
 geomtype = xyz
 geometry = {
 6
    -264.76489694
 O     0.82869278    1.16169550    0.00000000
 O     0.82658011   -1.16233555    0.00000000
 O    -7.34123418    0.00289617    0.00000000
 H    -7.92486719    0.76349082    0.00000000
 H    -7.92459908   -0.75790575    0.00000000
 C     0.80876519   -0.00029961    0.00000000
 }
 hf
 ccsd(t)-f12
 ---

 Variables initialized (665), CPU time= 0.01 sec
 Commands  initialized (462), CPU time= 0.01 sec, 486 directives.
 Default parameters read. Elapsed time= 0.05 sec

 Checking input...
 Passed
1


                                         ***  PROGRAM SYSTEM MOLPRO  ***
                         Copyright, University College Cardiff Consultants Limited, 2008

                                    Version 2010.1 linked 9 Dec 2014 15:06:28 


 **********************************************************************************************************************************
 LABEL *   co2h2o                                                                        
 Linux-2.6.32-504.el6.x86_64/node22(x86_64) 64 bit mpp version                           DATE: 06-Dec-16          TIME: 23:49:53  
 **********************************************************************************************************************************

 Patch level:      19
 **********************************************************************************************************************************

 Variable memory set to  100000000 words,  buffer space   230000 words

 SETTING BASIS          =    AVTZ
 SETTING GEOMTYPE       =    XYZ

Geometry recognized as XYZ



 Recomputing integrals since basis changed


 Using spherical harmonics

 Library entry O      S aug-cc-pVTZ          selected for orbital group  1
 Library entry O      P aug-cc-pVTZ          selected for orbital group  1
 Library entry O      D aug-cc-pVTZ          selected for orbital group  1
 Library entry O      F aug-cc-pVTZ          selected for orbital group  1
 Library entry H      S aug-cc-pVTZ          selected for orbital group  2
 Library entry H      P aug-cc-pVTZ          selected for orbital group  2
 Library entry H      D aug-cc-pVTZ          selected for orbital group  2
 Library entry C      S aug-cc-pVTZ          selected for orbital group  3
 Library entry C      P aug-cc-pVTZ          selected for orbital group  3
 Library entry C      D aug-cc-pVTZ          selected for orbital group  3
 Library entry C      F aug-cc-pVTZ          selected for orbital group  3

1PROGRAM * SEWARD (Integral evaluation for generally contracted gaussian basis sets)     Author: Roland Lindh, 1990

 Geometry written to block  1 of record 700


 Point group  Cs  



 ATOMIC COORDINATES

 NR  ATOM    CHARGE       X              Y              Z

   1  O       8.00    1.566002401    2.195286343    0.000000000
   2  O       8.00    1.562010034   -2.196495862    0.000000000
   3  O       8.00  -13.872922067    0.005472968    0.000000000
   4  H       1.00  -14.975828617    1.442788554    0.000000000
   5  H       1.00  -14.975321963   -1.432234301    0.000000000
   6  C       6.00    1.528344714   -0.000566181    0.000000000

 Bond lengths in Bohr (Angstrom)

 1-6  2.196175405  2-6  2.196187724  3-4  1.811706088  3-5  1.811708509
     (1.162165971)     (1.162172490)     (0.958713571)     (0.958714852)

 Bond angles

  1-6-2  178.13918425   4-3-5  105.01947441

 NUCLEAR CHARGE:                   32
 NUMBER OF PRIMITIVE AOS:         322
 NUMBER OF SYMMETRY AOS:          282
 NUMBER OF CONTRACTIONS:          230   ( 152A'  +  78A"  )
 NUMBER OF CORE ORBITALS:           4   (   4A'  +   0A"  )
 NUMBER OF VALENCE ORBITALS:       18   (  14A'  +   4A"  )


 NUCLEAR REPULSION ENERGY   81.42552644


 Eigenvalues of metric

         1 0.349E-03 0.374E-03 0.393E-03 0.418E-03 0.902E-03 0.922E-03 0.167E-02 0.175E-02
         2 0.318E-02 0.348E-02 0.595E-02 0.124E-01 0.136E-01 0.296E-01 0.296E-01 0.319E-01


 Contracted 2-electron integrals neglected if value below      1.0D-11
 AO integral compression algorithm  1   Integral accuracy      1.0D-11

     302.252 MB (compressed) written to integral file ( 24.0%)

     Node minimum: 87.032 MB, node maximum: 109.576 MB


 NUMBER OF SORTED TWO-ELECTRON INTEGRALS:   59950380.     BUFFER LENGTH:  32768
 NUMBER OF SEGMENTS:   4  SEGMENT LENGTH:   15995235      RECORD LENGTH: 524288

 Memory used in sort:      16.55 MW

 SORT1 READ   157706473. AND WROTE    20946961. INTEGRALS IN     62 RECORDS. CPU TIME:     2.09 SEC, REAL TIME:     2.35 SEC
 SORT2 READ    62874457. AND WROTE   179836431. INTEGRALS IN   1254 RECORDS. CPU TIME:     0.68 SEC, REAL TIME:     0.91 SEC

 Node minimum:    59940574.  Node maximum:    59950380. integrals

 OPERATOR DM      FOR CENTER  0  COORDINATES:    0.000000    0.000000    0.000000


 **********************************************************************************************************************************
 DATASETS  * FILE   NREC   LENGTH (MB)   RECORD NAMES
              1      18        3.74       500      610      700      900      950      970     1000      129      960     1100   
                                          VAR    BASINP    GEOM    SYMINP    ZMAT    AOBASIS   BASIS     P2S    ABASIS      S 
                                         1400     1410     1200     1210     1080     1600     1650     1700   
                                           T        V       H0       H01     AOSYM     SMH    MOLCAS    OPER   

 PROGRAMS   *        TOTAL       INT
 CPU TIMES  *         5.84      5.76
 REAL TIME  *         6.50 SEC
 DISK USED  *         1.05 GB      
 GA USED    *         0.00 MB       (max)       0.00 MB       (current)
 **********************************************************************************************************************************

1PROGRAM * RHF-SCF (CLOSED SHELL)       Authors: W. Meyer, H.-J. Werner


 NUMBER OF ELECTRONS:      16+   16-
 CONVERGENCE THRESHOLDS:    1.00E-05 (Density)    1.00E-07 (Energy)
 MAX. NUMBER OF ITERATIONS:       60
 INTERPOLATION TYPE:            DIIS
 INTERPOLATION STEPS:              2 (START)      1 (STEP)
 LEVEL SHIFTS:                  0.00 (CLOSED)  0.00 (OPEN) 



 Orbital guess generated from atomic densities. Full valence occupancy:   18   4

 Molecular orbital dump at record        2100.2

 Initial alpha occupancy:  13   3
 Initial beta  occupancy:  13   3
 Wave function symmetry:    1

 ITERATION    DDIFF          GRAD             ENERGY        2-EL.EN.            DIPOLE MOMENTS         DIIS
    1      0.000D+00      0.000D+00      -263.66043571    358.444542   -1.18419   -0.00012    0.00000    0
    2      0.000D+00      0.629D-02      -263.72567871    353.855648   -0.68646   -0.00010    0.00000    1
    3      0.101D-01      0.427D-02      -263.76897443    356.419183   -0.81055   -0.00009    0.00000    2
    4      0.415D-02      0.402D-03      -263.76946951    356.207071   -0.81389   -0.00010    0.00000    3
    5      0.485D-03      0.117D-03      -263.76952749    356.209341   -0.80848   -0.00009    0.00000    4
    6      0.181D-03      0.472D-04      -263.76953466    356.223781   -0.80915   -0.00009    0.00000    5
    7      0.603D-04      0.116D-04      -263.76953538    356.215437   -0.80870   -0.00009    0.00000    6
    8      0.197D-04      0.254D-05      -263.76953543    356.216736   -0.80871   -0.00009    0.00000    7
    9      0.541D-05      0.852D-06      -263.76953543    356.216545   -0.80868   -0.00009    0.00000    0

 Final occupancy:  13   3

 !RHF STATE 1.1 Energy               -263.769535434988
 Nuclear energy                        81.42552644
 One-electron energy                 -523.30333428
 Two-electron energy                  178.10827240
 Virial quotient                       -1.00182896
 !RHF STATE 1.1 Dipole moment          -0.80867929    -0.00009300     0.00000000
 Dipole moment /Debye                  -2.05532312    -0.00023636     0.00000000

 Orbital energies:

         1.1          2.1          3.1          4.1          5.1          6.1          7.1          8.1          9.1         10.1
    -20.650338   -20.650293   -20.567830   -11.459121    -1.528001    -1.474903    -1.353078    -0.798242    -0.740495    -0.718613

        11.1         12.1         13.1         14.1         15.1
     -0.712027    -0.584316    -0.541663     0.028383     0.047191

         1.2          2.2          3.2          4.2          5.2
     -0.712071    -0.541704    -0.510701     0.075690     0.157821


 **********************************************************************************************************************************
 DATASETS  * FILE   NREC   LENGTH (MB)   RECORD NAMES
              1      18        3.76       500      610      700      900      950      970     1000      129      960     1100   
                                          VAR    BASINP    GEOM    SYMINP    ZMAT    AOBASIS   BASIS     P2S    ABASIS      S 
                                         1400     1410     1200     1210     1080     1600     1650     1700   
                                           T        V       H0       H01     AOSYM     SMH    MOLCAS    OPER   

              2       3        0.96       700     1000     2100   
                                         GEOM     BASIS     RHF  

 PROGRAMS   *        TOTAL        HF       INT
 CPU TIMES  *         9.26      3.41      5.76
 REAL TIME  *        10.09 SEC
 DISK USED  *         1.08 GB      
 SF USED    *         0.12 MB      
 GA USED    *         0.00 MB       (max)       0.00 MB       (current)
 **********************************************************************************************************************************


1PROGRAM * CCSD (Closed-shell coupled cluster)     Authors: C. Hampel, H.-J. Werner, 1991, M. Deegan, P.J. Knowles, 1992

                                  CCSD-F12 implementation by  H.-J. Werner, 2007

                   Density fitting integral evaluation by F.R. Manby, 2003,2007, G. Knizia, 2010

 Basis set CC-PVTZ/JKFIT generated.      Number of basis functions:   376 
 Basis set AUG-CC-PVTZ/MP2FIT generated. Number of basis functions:   516 

 Convergence thresholds:  THRVAR = 1.00D-08  THRDEN = 1.00D-06

 CCSD(T)     terms to be evaluated (factor= 1.000)


 Number of core orbitals:           4 (   4   0 )
 Number of closed-shell orbitals:  12 (   9   3 )
 Number of external orbitals:     214 ( 139  75 )

 Molecular orbitals read from record     2100.2  Type=RHF/CANONICAL (state 1.1)

 MP2-F12 correlation treatment (H.-J. Werner, 2006)
 --------------------------------------------------

 Using MP2-F12 with ansatz 3C(FIX)

 Using projected zeroth-order Hamiltonian (+Z)

 FOCKRIB=T FOCKRIC=T FOCKRIP=T CABSP=T CABSA=T CABSK=T CABSF=T GBC=F EBC=F DMAT=T NOFIK=T NOPAO=1 SOLVE=-1  USEPAO=0
 EXCH_A= T EXCH_B= F EXCH_C= F EXCH_P= F
 
 Geminal basis:    OPTFULL  GEM_TYPE=SLATER  BETA=1.0  NGEM=6

 Optimizing Gaussian exponents for each gem_beta

 Geminal optimization for beta= 1.0000
 Weight function:   m=0, omega= 1.4646

 Augmented Hessian optimization of geminal fit. Trust ratio= 0.40000
 Convergence reached after   2 iterations. Final gradient= 8.24D-16, Step= 4.32D-06, Delta= 1.28D-09
 
 Alpha:                 0.19532     0.81920     2.85917     9.50073    35.69989   197.79328
 Coeff:                 0.27070     0.30552     0.18297     0.10986     0.06810     0.04224
 

 Symmetry turned off. Reference energy:       -263.769535434988

 All pairs explicitly correlated. Number of r12-pairs:           78
 
 AO(A)-basis ORBITAL           loaded. Number of functions:     230
 RI(R)-basis CC-PVTZ/JKFIT     loaded. Number of functions:     376
 DF-basis CC-PVTZ/JKFIT        loaded. Number of functions:     376

 Screening thresholds:   THRAO=  1.00D-10  THRMO=  1.00D-09  THRPROD=  1.00D-09
                         THRSW=  1.00D-05  THROV=  1.00D-12  THRF12=   1.00D-08

 CPU time for Fock operators                      0.96 sec
 
 Construction of ABS:
 Smallest eigenvalue of S          2.57E-04  (threshold= 1.00E-08)
 Ratio eigmin/eigmax               1.83E-06  (threshold= 1.00E-09)
 Smallest eigenvalue of S kept     2.57E-04  (threshold= 2.57E-04, 0 functions deleted, 376 kept)
 
 Construction of CABS:
 Smallest eigenvalue of S          2.30E-08  (threshold= 1.00E-08)
 Ratio eigmin/eigmax               2.30E-08  (threshold= 1.00E-09)
 Smallest eigenvalue of S kept     2.30E-08  (threshold= 2.30E-08, 0 functions deleted, 376 kept)
 
 CPU time for CABS singles                        0.20 sec

 CABS-singles contribution of  -0.01592402 patched into reference energy.
 New reference energy        -263.78545946
 
 AO(A)-basis ORBITAL           loaded. Number of functions:     230
 RI(R)-basis CC-PVTZ/JKFIT     loaded. Number of functions:     376
 DF-basis AUG-CC-PVTZ/MP2FIT   loaded. Number of functions:     516

 Screening thresholds:   THRAO=  1.00D-10  THRMO=  1.00D-09  THRPROD=  1.00D-09
                         THRSW=  1.00D-05  THROV=  1.00D-12  THRF12=   1.00D-08

 CPU time for 3-index integral evaluation         2.02 sec
 CPU time for first  half transformation          0.26 sec ( 9505.3 MFLOP/sec)
 CPU time for sorting                             0.13 sec
 CPU time for fitting                             0.08 sec (17519.6 MFLOP/sec)
 CPU time for tilde quantities                    0.20 sec ( 9244.4 MFLOP/sec)
 CPU time for assembly                            0.83 sec (28680.9 MFLOP/sec)
 CPU time for tranop_f12                          1.00 sec (30275.1 MFLOP/sec)
 CPU time for f12 integrals (total)               6.81 sec
 F12-matrices built in  3 passes.
 F12-matrices built in  3 passes.
 F12-matrices built in  3 passes.
 F12-matrices built in  3 passes.
 FC-matrix built in  3 passes.
 CPU time for f12 matrices (total)                0.61 sec

 Diagonal F12 approximation with fixed coefficients:  TSING= 0.500,  TTRIP= 0.250 (scaled by -1/beta)

 DF-MP2-F12 energy corrections:
 ------------------------------
 Approx.                                    Singlet             Triplet             Total
 DF-MP2-F12/3*C(DX,FIX)                -0.097453557687     -0.016934290523     -0.114387848210
 DF-MP2-F12/3*C(FIX)                   -0.079869600737     -0.013396362333     -0.093265963070
 DF-MP2-F12/3C(FIX)                    -0.080230343057     -0.013419491030     -0.093649834087

 DF-MP2-F12 correlation energies:
 --------------------------------
 Approx.                                    Singlet             Triplet             Ecorr            Total Energy
 DF-MP2                                -0.537718629316     -0.343064421082     -0.880783050397   -264.666242507593
 DF-MP2-F12/3*C(DX,FIX)                -0.635172187003     -0.359998711605     -0.995170898608   -264.780630355804
 DF-MP2-F12/3*C(FIX)                   -0.617588230053     -0.356460783415     -0.974049013467   -264.759508470663
 DF-MP2-F12/3C(FIX)                    -0.617948972372     -0.356483912112     -0.974432884484   -264.759892341680

 SCS-DF-MP2 energies (F_SING= 1.20000  F_TRIP= 0.62222  F_PARALLEL= 0.33333):
 ----------------------------------------------------------------------------
 SCS-DF-MP2                            -0.858724661630   -264.644184118826
 SCS-DF-MP2-F12/3*C(DX,FIX)            -0.986205822735   -264.771665279931
 SCS-DF-MP2-F12/3*C(FIX)               -0.962903696855   -264.748363154051
 SCS-DF-MP2-F12/3C(FIX)                -0.963350978827   -264.748810436023

 Symmetry restored.
 Symmetry transformation completed.

 Number of N-1 electron functions:              12
 Number of N-2 electron functions:              78
 Number of singly external CSFs:              1476
 Number of doubly external CSFs:           1686804
 Total number of CSFs:                     1688281

 Pair and operator lists are different

 Length of J-op  integral file:             466.42 MB
 Length of K-op  integral file:             526.62 MB
 Length of 3-ext integral record:             0.00 MB

 Memory could be reduced to 76.61 Mwords without degradation in triples

 Integral transformation finished. Total CPU:   4.50 sec, npass=  1  Memory used:  24.61 MW

 Reference energy:                   -263.78545946

 Adding F12 terms to K(Cij), methodcc=6,  factor=1.0

 ITER.      SQ.NORM     CORR.ENERGY   TOTAL ENERGY   ENERGY CHANGE        DEN1      VAR(S)    VAR(P)  DIIS     TIME
   1      1.20214156    -0.86273763  -264.64819709     0.01806190     0.04669112  0.72D-02  0.56D-02  1  1    16.31
   2      1.21645277    -0.85851140  -264.64397086     0.00422623    -0.02015075  0.86D-04  0.59D-03  2  2    19.52
   3      1.22181271    -0.85860762  -264.64406707    -0.00009622    -0.00236384  0.13D-03  0.32D-04  3  3    22.92
   4      1.22461423    -0.85847979  -264.64393925     0.00012782    -0.00141118  0.76D-05  0.41D-05  4  4    26.47
   5      1.22564413    -0.85844210  -264.64390156     0.00003769    -0.00036635  0.56D-06  0.29D-06  5  5    29.43
   6      1.22580630    -0.85841524  -264.64387469     0.00002686    -0.00000805  0.40D-07  0.24D-07  6  6    32.40
   7      1.22583565    -0.85841281  -264.64387227     0.00000242    -0.00000622  0.25D-08  0.40D-08  6  4    35.73
   8      1.22583595    -0.85841233  -264.64387178     0.00000049     0.00000195  0.39D-09  0.27D-09  6  1    38.92
   9      1.22583656    -0.85841239  -264.64387185    -0.00000007     0.00000056  0.26D-10  0.21D-10  6  2    41.86

 Norm of t1 vector:      0.10595511      S-energy:    -0.00000002      T1 diagnostic:  0.01529330
                                                                       D1 diagnostic:  0.04494880

 Adding energy correction from Wij-K(Fij), methodcc=6  factor=1.0
 
  CCSD correlation energy              -0.858412391809
  MP2-F12 correction (uncoupled)       -0.092492958298
  C*T doubles correction               -0.001475607594
  f12b correction                       0.015407230616


 Total CPU time for triples:     78.42 sec


 RESULTS
 =======

  Reference energy                   -263.769535434988
  F12 singles correction               -0.015924022208

 F12 singles corrections added to reference energy

  New reference energy               -263.785459457196

  F12a singlet correction              -0.080430331111
  F12a triplet correction              -0.013538234781
  F12a total correction                -0.093968565892

 F12a corrections for ansatz F12/3C(FIX) added to CCSD energy
 
  CCSD-F12a singlet pair energy        -0.641885986338
  CCSD-F12a triplet pair energy        -0.310494946760
  CCSD-F12a correlation energy         -0.952380957701

  Triples (T) contribution             -0.037637095897
  Total correlation energy             -0.990018053598

  CCSD-F12a total energy             -264.737840414897
  CCSD[T]-F12a energy                -264.778020819573
  CCSD-T-F12a energy                 -264.774540079805
 !CCSD(T)-F12a total energy          -264.775477510794

 F12b corrections for ansatz F12/3C(FIX) added to CCSD(T)-F12a energy

  CCSD-F12b singlet pair energy        -0.627702116104
  CCSD-F12b triplet pair energy        -0.309271586377
  CCSD-F12b correlation energy         -0.936973727085

  Triples (T) contribution             -0.037637095897
  Total correlation energy             -0.974610822982

  CCSD-F12b total energy             -264.722433184281
  CCSD[T]-F12b energy                -264.762613588957
  CCSD-T-F12b energy                 -264.759132849189
 !CCSD(T)-F12b total energy          -264.760070280178

 Timing summary (sec):

 STEP                 CPU(USER)    SYS     CPU(TOT)    WALL
 Transformation          4.54      0.59      5.13      5.13
 CCSD iterations        28.26      1.68     29.94     31.28
 Triples                78.42      1.55     79.97     79.95
 MP2-F12                 9.08      1.51     10.59     10.59
 F12b energy             1.87      0.05      1.92      1.91

 Program statistics:

 Available memory in ccsd:                99998934
 Min. memory needed in ccsd:               4458306
 Max. memory used in ccsd:                 5958390
 Max. memory used in cckext:               6352469 (10 integral passes)



 **********************************************************************************************************************************
 DATASETS  * FILE   NREC   LENGTH (MB)   RECORD NAMES
              1      20      269.66       500      610      700      900      950      970     1000      129      960     1100   
                                          VAR    BASINP    GEOM    SYMINP    ZMAT    AOBASIS   BASIS     P2S    ABASIS      S 
                                         1400     1410     1200     1210     1080     1600     1650     1700      960(1)  1380   
                                           T        V       H0       H01     AOSYM     SMH    MOLCAS    OPER    ABASIS    JKOP   

              2       5        1.55       700     1000     2100     7360     7350   
                                         GEOM     BASIS     RHF    F12ABS    EF12   

 PROGRAMS   *        TOTAL   CCSD(T)        HF       INT
 CPU TIMES  *       131.53    122.28      3.41      5.76
 REAL TIME  *       139.34 SEC
 DISK USED  *         1.51 GB      
 SF USED    *         1.53 GB      
 GA USED    *         2.40 MB       (max)       0.00 MB       (current)
 **********************************************************************************************************************************

     CCSD(T)-F12        HF-SCF  
   -264.76007028   -263.76953543
 **********************************************************************************************************************************
 Variable memory released
