
 Primary working directories    : /scratch/kee
 Secondary working directories  : /scratch/kee
 Wavefunction directory         : /home/kee/wfu/
 Main file repository           : /scratch/kee/

 ARCHNAME  : Linux/x86_64
 FC        : /opt/intel/composer_xe_2015.0.090/bin/intel64/ifort
 FCVERSION : 15.0.0
 BLASLIB   : -L/opt/intel/mkl/lib/intel64 -lmkl_intel_ilp64 -lmkl_sequential -lmkl_core
 id        : emory

 Nodes     nprocs
 node25       3
 Number of processes for MPI-2 version of Molpro:   nprocs(total)=    4   nprocs(compute)=    3   nprocs(helper)=    1
 ga_uses_ma=false, calling ma_init with nominal heap.
 GA-space will be limited to   8.0 MW (determined by -G option)

 Using customized tuning parameters: mindgm=7; mindgv=32; mindgc=1; mindgr=1; noblas=0; mincuda=1000; minvec=7
 default implementation of scratch files=sf  

 ***,co2h2o
 memory,100,m
 basis avtz
 geomtype = xyz
 geometry = {
 6
       0.00000000
 O     0.01288800    1.16233300    0.00000000
 O     0.01288800   -1.16233300    0.00000000
 O     4.90363900    0.00000000    0.00000000
 H     4.32249900    0.76306800    0.00000000
 H     4.32249900   -0.76306800    0.00000000
 C     0.00363900    0.00000000    0.00000000
 }
 hf
 ccsd(t)-f12
 ---

 Variables initialized (665), CPU time= 0.01 sec
 Commands  initialized (462), CPU time= 0.00 sec, 486 directives.
 Default parameters read. Elapsed time= 0.03 sec

 Checking input...
 Passed
1


                                         ***  PROGRAM SYSTEM MOLPRO  ***
                         Copyright, University College Cardiff Consultants Limited, 2008

                                    Version 2010.1 linked 9 Dec 2014 15:06:28 


 **********************************************************************************************************************************
 LABEL *   co2h2o                                                                        
 Linux-2.6.32-504.el6.x86_64/node25(x86_64) 64 bit mpp version                           DATE: 15-Dec-16          TIME: 00:23:00  
 **********************************************************************************************************************************

 Patch level:      19
 **********************************************************************************************************************************

 Variable memory set to  100000000 words,  buffer space   230000 words

 SETTING BASIS          =    AVTZ
 SETTING GEOMTYPE       =    XYZ

Geometry recognized as XYZ



 Recomputing integrals since basis changed


 Using spherical harmonics

 Library entry O      S aug-cc-pVTZ          selected for orbital group  1
 Library entry O      P aug-cc-pVTZ          selected for orbital group  1
 Library entry O      D aug-cc-pVTZ          selected for orbital group  1
 Library entry O      F aug-cc-pVTZ          selected for orbital group  1
 Library entry H      S aug-cc-pVTZ          selected for orbital group  2
 Library entry H      P aug-cc-pVTZ          selected for orbital group  2
 Library entry H      D aug-cc-pVTZ          selected for orbital group  2
 Library entry C      S aug-cc-pVTZ          selected for orbital group  3
 Library entry C      P aug-cc-pVTZ          selected for orbital group  3
 Library entry C      D aug-cc-pVTZ          selected for orbital group  3
 Library entry C      F aug-cc-pVTZ          selected for orbital group  3

1PROGRAM * SEWARD (Integral evaluation for generally contracted gaussian basis sets)     Author: Roland Lindh, 1990

 Geometry written to block  1 of record 700


 Point group  C2v 



 ATOMIC COORDINATES

 NR  ATOM    CHARGE       X              Y              Z

   1  O       8.00    0.024354790    2.196491044    0.000000000
   2  O       8.00    0.024354790   -2.196491044    0.000000000
   3  O       8.00    9.266534757    0.000000000    0.000000000
   4  H       1.00    8.168339313    1.441989540    0.000000000
   5  H       1.00    8.168339313   -1.441989540    0.000000000
   6  C       6.00    0.006876713    0.000000000    0.000000000

 Bond lengths in Bohr (Angstrom)

 1-6  2.196560581  2-6  2.196560581  3-4  1.812558155  3-5  1.812558155
     (1.162369798)     (1.162369798)     (0.959164466)     (0.959164466)

 Bond angles

  1-6-2  179.08818302   4-3-5  105.41539946

 NUCLEAR CHARGE:                   32
 NUMBER OF PRIMITIVE AOS:         322
 NUMBER OF SYMMETRY AOS:          282
 NUMBER OF CONTRACTIONS:          230   (  84A1  +  68B1  +  45B2  +  33A2  )
 NUMBER OF CORE ORBITALS:           4   (   3A1  +   1B1  +   0B2  +   0A2  )
 NUMBER OF VALENCE ORBITALS:       18   (   8A1  +   6B1  +   3B2  +   1A2  )


 NUCLEAR REPULSION ENERGY   91.30337312


 Eigenvalues of metric

         1 0.354E-03 0.372E-03 0.897E-03 0.153E-02 0.296E-02 0.320E-02 0.390E-02 0.435E-02
         2 0.333E-03 0.388E-03 0.914E-03 0.165E-02 0.173E-02 0.317E-02 0.471E-02 0.610E-02
         3 0.318E-02 0.572E-02 0.135E-01 0.292E-01 0.316E-01 0.361E-01 0.590E-01 0.640E-01
         4 0.347E-02 0.124E-01 0.296E-01 0.362E-01 0.557E-01 0.679E-01 0.111E+00 0.140E+00


 Contracted 2-electron integrals neglected if value below      1.0D-11
 AO integral compression algorithm  1   Integral accuracy      1.0D-11

     298.582 MB (compressed) written to integral file ( 33.3%)

     Node minimum: 96.731 MB, node maximum: 101.712 MB


 NUMBER OF SORTED TWO-ELECTRON INTEGRALS:   30156294.     BUFFER LENGTH:  32768
 NUMBER OF SEGMENTS:   2  SEGMENT LENGTH:   15999663      RECORD LENGTH: 524288

 Memory used in sort:      16.56 MW

 SORT1 READ   112128696. AND WROTE    21147044. INTEGRALS IN     61 RECORDS. CPU TIME:     2.16 SEC, REAL TIME:     2.42 SEC
 SORT2 READ    64073446. AND WROTE    90461370. INTEGRALS IN   1146 RECORDS. CPU TIME:     0.56 SEC, REAL TIME:     0.75 SEC

 Node minimum:    30151286.  Node maximum:    30156294. integrals

 OPERATOR DM      FOR CENTER  0  COORDINATES:    0.000000    0.000000    0.000000


 **********************************************************************************************************************************
 DATASETS  * FILE   NREC   LENGTH (MB)   RECORD NAMES
              1      18        3.24       500      610      700      900      950      970     1000      129      960     1100   
                                          VAR    BASINP    GEOM    SYMINP    ZMAT    AOBASIS   BASIS     P2S    ABASIS      S 
                                         1400     1410     1200     1210     1080     1600     1650     1700   
                                           T        V       H0       H01     AOSYM     SMH    MOLCAS    OPER   

 PROGRAMS   *        TOTAL       INT
 CPU TIMES  *         5.08      5.00
 REAL TIME  *         5.77 SEC
 DISK USED  *         1.06 GB      
 GA USED    *         0.00 MB       (max)       0.00 MB       (current)
 **********************************************************************************************************************************

1PROGRAM * RHF-SCF (CLOSED SHELL)       Authors: W. Meyer, H.-J. Werner


 NUMBER OF ELECTRONS:      16+   16-
 CONVERGENCE THRESHOLDS:    1.00E-05 (Density)    1.00E-07 (Energy)
 MAX. NUMBER OF ITERATIONS:       60
 INTERPOLATION TYPE:            DIIS
 INTERPOLATION STEPS:              2 (START)      1 (STEP)
 LEVEL SHIFTS:                  0.00 (CLOSED)  0.00 (OPEN) 



 Orbital guess generated from atomic densities. Full valence occupancy:   11   7   3   1

 Molecular orbital dump at record        2100.2

 Initial alpha occupancy:   8   5   2   1
 Initial beta  occupancy:   8   5   2   1
 Wave function symmetry:    1

 ITERATION    DDIFF          GRAD             ENERGY        2-EL.EN.            DIPOLE MOMENTS         DIIS
    1      0.000D+00      0.000D+00      -263.65929569    377.403369   -1.15282    0.00000    0.00000    0
    2      0.000D+00      0.884D-02      -263.72469584    373.165919   -0.69120    0.00000    0.00000    1
    3      0.142D-01      0.602D-02      -263.76859606    375.646638   -0.80434    0.00000    0.00000    2
    4      0.585D-02      0.562D-03      -263.76909175    375.428570   -0.80738    0.00000    0.00000    3
    5      0.690D-03      0.163D-03      -263.76914970    375.435755   -0.80221    0.00000    0.00000    4
    6      0.256D-03      0.655D-04      -263.76915678    375.449468   -0.80291    0.00000    0.00000    5
    7      0.845D-04      0.162D-04      -263.76915751    375.441400   -0.80245    0.00000    0.00000    6
    8      0.279D-04      0.356D-05      -263.76915756    375.442693   -0.80245    0.00000    0.00000    7
    9      0.765D-05      0.119D-05      -263.76915756    375.442527   -0.80241    0.00000    0.00000    0

 Final occupancy:   8   5   2   1

 !RHF STATE 1.1 Energy               -263.769157558096
 Nuclear energy                        91.30337312
 One-electron energy                 -542.79379397
 Two-electron energy                  187.72126329
 Virial quotient                       -1.00184134
 !RHF STATE 1.1 Dipole moment          -0.80241444     0.00000000     0.00000000
 Dipole moment /Debye                  -2.03940050     0.00000000     0.00000000

 Orbital energies:

         1.1          2.1          3.1          4.1          5.1          6.1          7.1          8.1          9.1         10.1
    -20.661819   -20.569403   -11.470576    -1.539357    -1.354220    -0.809537    -0.723617    -0.584952     0.027602     0.054320

         1.2          2.2          3.2          4.2          5.2          6.2          7.2
    -20.661865    -1.486281    -0.751708    -0.720684    -0.553164     0.049041     0.084872

         1.3          2.3          3.3          4.3
     -0.723341    -0.512106     0.067590     0.160648

         1.4          2.4          3.4
     -0.553004     0.157062     0.267941


 **********************************************************************************************************************************
 DATASETS  * FILE   NREC   LENGTH (MB)   RECORD NAMES
              1      18        3.25       500      610      700      900      950      970     1000      129      960     1100   
                                          VAR    BASINP    GEOM    SYMINP    ZMAT    AOBASIS   BASIS     P2S    ABASIS      S 
                                         1400     1410     1200     1210     1080     1600     1650     1700   
                                           T        V       H0       H01     AOSYM     SMH    MOLCAS    OPER   

              2       3        0.68       700     1000     2100   
                                         GEOM     BASIS     RHF  

 PROGRAMS   *        TOTAL        HF       INT
 CPU TIMES  *         6.45      1.38      5.00
 REAL TIME  *         7.27 SEC
 DISK USED  *         1.07 GB      
 SF USED    *         0.06 MB      
 GA USED    *         0.00 MB       (max)       0.00 MB       (current)
 **********************************************************************************************************************************


1PROGRAM * CCSD (Closed-shell coupled cluster)     Authors: C. Hampel, H.-J. Werner, 1991, M. Deegan, P.J. Knowles, 1992

                                  CCSD-F12 implementation by  H.-J. Werner, 2007

                   Density fitting integral evaluation by F.R. Manby, 2003,2007, G. Knizia, 2010

 Basis set CC-PVTZ/JKFIT generated.      Number of basis functions:   376 
 Basis set AUG-CC-PVTZ/MP2FIT generated. Number of basis functions:   516 

 Convergence thresholds:  THRVAR = 1.00D-08  THRDEN = 1.00D-06

 CCSD(T)     terms to be evaluated (factor= 1.000)


 Number of core orbitals:           4 (   3   1   0   0 )
 Number of closed-shell orbitals:  12 (   5   4   2   1 )
 Number of external orbitals:     214 (  76  63  43  32 )

 Molecular orbitals read from record     2100.2  Type=RHF/CANONICAL (state 1.1)

 MP2-F12 correlation treatment (H.-J. Werner, 2006)
 --------------------------------------------------

 Using MP2-F12 with ansatz 3C(FIX)

 Using projected zeroth-order Hamiltonian (+Z)

 FOCKRIB=T FOCKRIC=T FOCKRIP=T CABSP=T CABSA=T CABSK=T CABSF=T GBC=F EBC=F DMAT=T NOFIK=T NOPAO=1 SOLVE=-1  USEPAO=0
 EXCH_A= T EXCH_B= F EXCH_C= F EXCH_P= F
 
 Geminal basis:    OPTFULL  GEM_TYPE=SLATER  BETA=1.0  NGEM=6

 Optimizing Gaussian exponents for each gem_beta

 Geminal optimization for beta= 1.0000
 Weight function:   m=0, omega= 1.4646

 Augmented Hessian optimization of geminal fit. Trust ratio= 0.40000
 Convergence reached after   2 iterations. Final gradient= 8.24D-16, Step= 4.32D-06, Delta= 1.28D-09
 
 Alpha:                 0.19532     0.81920     2.85917     9.50073    35.69989   197.79328
 Coeff:                 0.27070     0.30552     0.18297     0.10986     0.06810     0.04224
 

 Symmetry turned off. Reference energy:       -263.769157558096

 All pairs explicitly correlated. Number of r12-pairs:           78
 
 AO(A)-basis ORBITAL           loaded. Number of functions:     230
 RI(R)-basis CC-PVTZ/JKFIT     loaded. Number of functions:     376
 DF-basis CC-PVTZ/JKFIT        loaded. Number of functions:     376

 Screening thresholds:   THRAO=  1.00D-10  THRMO=  1.00D-09  THRPROD=  1.00D-09
                         THRSW=  1.00D-05  THROV=  1.00D-12  THRF12=   1.00D-08

 CPU time for Fock operators                      0.91 sec
 
 Construction of ABS:
 Smallest eigenvalue of S          2.57E-04  (threshold= 1.00E-08)
 Ratio eigmin/eigmax               1.83E-06  (threshold= 1.00E-09)
 Smallest eigenvalue of S kept     2.57E-04  (threshold= 2.57E-04, 0 functions deleted, 376 kept)
 
 Construction of CABS:
 Smallest eigenvalue of S          2.29E-08  (threshold= 1.00E-08)
 Ratio eigmin/eigmax               2.29E-08  (threshold= 1.00E-09)
 Smallest eigenvalue of S kept     2.29E-08  (threshold= 2.29E-08, 0 functions deleted, 376 kept)
 
 CPU time for CABS singles                        0.16 sec

 CABS-singles contribution of  -0.01592538 patched into reference energy.
 New reference energy        -263.78508294
 
 AO(A)-basis ORBITAL           loaded. Number of functions:     230
 RI(R)-basis CC-PVTZ/JKFIT     loaded. Number of functions:     376
 DF-basis AUG-CC-PVTZ/MP2FIT   loaded. Number of functions:     516

 Screening thresholds:   THRAO=  1.00D-10  THRMO=  1.00D-09  THRPROD=  1.00D-09
                         THRSW=  1.00D-05  THROV=  1.00D-12  THRF12=   1.00D-08

 CPU time for 3-index integral evaluation         2.61 sec
 CPU time for first  half transformation          0.23 sec (12330.5 MFLOP/sec)
 CPU time for second half transformation          0.04 sec ( 2610.6 MFLOP/sec)
 CPU time for sorting                             0.13 sec
 CPU time for fitting                             0.05 sec (27861.0 MFLOP/sec)
 CPU time for tilde quantities                    0.04 sec (46222.0 MFLOP/sec)
 CPU time for assembly                            0.80 sec (29534.8 MFLOP/sec)
 CPU time for tranop_f12                          0.85 sec (35693.7 MFLOP/sec)
 CPU time for f12 integrals (total)               6.69 sec
 F12-matrices built in  3 passes.
 F12-matrices built in  3 passes.
 F12-matrices built in  3 passes.
 F12-matrices built in  3 passes.
 FC-matrix built in  3 passes.
 CPU time for f12 matrices (total)                0.47 sec

 Diagonal F12 approximation with fixed coefficients:  TSING= 0.500,  TTRIP= 0.250 (scaled by -1/beta)

 DF-MP2-F12 energy corrections:
 ------------------------------
 Approx.                                    Singlet             Triplet             Total
 DF-MP2-F12/3*C(DX,FIX)                -0.097406847683     -0.016926744084     -0.114333591767
 DF-MP2-F12/3*C(FIX)                   -0.079828133654     -0.013390355630     -0.093218489284
 DF-MP2-F12/3C(FIX)                    -0.080192017452     -0.013414921492     -0.093606938945

 DF-MP2-F12 correlation energies:
 --------------------------------
 Approx.                                    Singlet             Triplet             Ecorr            Total Energy
 DF-MP2                                -0.537892183821     -0.343277277375     -0.881169461196   -264.666252402791
 DF-MP2-F12/3*C(DX,FIX)                -0.635299031503     -0.360204021460     -0.995503052963   -264.780585994558
 DF-MP2-F12/3*C(FIX)                   -0.617720317475     -0.356667633005     -0.974387950481   -264.759470892076
 DF-MP2-F12/3C(FIX)                    -0.618084201273     -0.356692198868     -0.974776400141   -264.759859341736

 SCS-DF-MP2 energies (F_SING= 1.20000  F_TRIP= 0.62222  F_PARALLEL= 0.33333):
 ----------------------------------------------------------------------------
 SCS-DF-MP2                            -0.859065370952   -264.644148312547
 SCS-DF-MP2-F12/3*C(DX,FIX)            -0.986485784490   -264.771568726085
 SCS-DF-MP2-F12/3*C(FIX)               -0.963190908173   -264.748273849769
 SCS-DF-MP2-F12/3C(FIX)                -0.963642854156   -264.748725795752

 Symmetry restored.
 Symmetry transformation completed.

 Number of N-1 electron functions:              12
 Number of N-2 electron functions:              78
 Number of singly external CSFs:               750
 Number of doubly external CSFs:            844332
 Total number of CSFs:                      845083

 Pair and operator lists are different

 Length of J-op  integral file:             462.28 MB
 Length of K-op  integral file:             502.25 MB
 Length of 3-ext integral record:             0.00 MB

 Memory could be reduced to 38.71 Mwords without degradation in triples

 Integral transformation finished. Total CPU:   1.39 sec, npass=  1  Memory used:   7.09 MW

 Reference energy:                   -263.78508294

 Adding F12 terms to K(Cij), methodcc=6,  factor=1.0

 ITER.      SQ.NORM     CORR.ENERGY   TOTAL ENERGY   ENERGY CHANGE        DEN1      VAR(S)    VAR(P)  DIIS     TIME
   1      1.20230292    -0.86306776  -264.64815070     0.01811761     0.04680010  0.72D-02  0.56D-02  1  1    10.90
   2      1.21664352    -0.85882971  -264.64391266     0.00423804    -0.02018542  0.86D-04  0.59D-03  2  2    11.84
   3      1.22201504    -0.85892581  -264.64400875    -0.00009610    -0.00236611  0.13D-03  0.33D-04  3  3    12.79
   4      1.22482368    -0.85879710  -264.64388004     0.00012871    -0.00141345  0.76D-05  0.41D-05  4  4    13.74
   5      1.22585714    -0.85875918  -264.64384212     0.00003792    -0.00036721  0.56D-06  0.29D-06  5  5    14.70
   6      1.22602027    -0.85873228  -264.64381522     0.00002690    -0.00000809  0.41D-07  0.24D-07  6  6    15.65
   7      1.22604994    -0.85872984  -264.64381278     0.00000244    -0.00000627  0.26D-08  0.41D-08  6  4    16.59
   8      1.22605031    -0.85872936  -264.64381230     0.00000048     0.00000195  0.40D-09  0.27D-09  6  1    17.55
   9      1.22605095    -0.85872943  -264.64381237    -0.00000007     0.00000056  0.27D-10  0.22D-10  6  2    18.52

 Norm of t1 vector:      0.10609584      S-energy:    -0.00000003      T1 diagnostic:  0.01531361
                                                                       D1 diagnostic:  0.04499156

 Adding energy correction from Wij-K(Fij), methodcc=6  factor=1.0
 
  CCSD correlation energy              -0.858729426934
  MP2-F12 correction (uncoupled)       -0.092447636718
  C*T doubles correction               -0.001475171317
  f12b correction                       0.015405324890


 Total CPU time for triples:     25.82 sec


 RESULTS
 =======

  Reference energy                   -263.769157558096
  F12 singles correction               -0.015925383499

 F12 singles corrections added to reference energy

  New reference energy               -263.785082941595

  F12a singlet correction              -0.080390213548
  F12a triplet correction              -0.013532594486
  F12a total correction                -0.093922808034

 F12a corrections for ansatz F12/3C(FIX) added to CCSD energy
 
  CCSD-F12a singlet pair energy        -0.641999299018
  CCSD-F12a triplet pair energy        -0.310652909836
  CCSD-F12a correlation energy         -0.952652234968

  Triples (T) contribution             -0.037700826658
  Total correlation energy             -0.990353061626

  CCSD-F12a total energy             -264.737735176564
  CCSD[T]-F12a energy                -264.777987917331
  CCSD-T-F12a energy                 -264.774495652102
 !CCSD(T)-F12a total energy          -264.775436003221

 F12b corrections for ansatz F12/3C(FIX) added to CCSD(T)-F12a energy

  CCSD-F12b singlet pair energy        -0.627817199120
  CCSD-F12b triplet pair energy        -0.309429684843
  CCSD-F12b correlation energy         -0.937246910078

  Triples (T) contribution             -0.037700826658
  Total correlation energy             -0.974947736736

  CCSD-F12b total energy             -264.722329851673
  CCSD[T]-F12b energy                -264.762582592440
  CCSD-T-F12b energy                 -264.759090327211
 !CCSD(T)-F12b total energy          -264.760030678331

 Timing summary (sec):

 STEP                 CPU(USER)    SYS     CPU(TOT)    WALL
 Transformation          1.40      0.20      1.60      1.60
 CCSD iterations         8.51      0.62      9.13      9.14
 Triples                25.82      0.72     26.54     26.52
 MP2-F12                 8.61      1.12      9.73      9.72
 F12b energy             0.60      0.01      0.61      0.61

 Program statistics:

 Available memory in ccsd:                99998934
 Min. memory needed in ccsd:               2252999
 Max. memory used in ccsd:                 3011949
 Max. memory used in cckext:               2777209 (10 integral passes)



 **********************************************************************************************************************************
 DATASETS  * FILE   NREC   LENGTH (MB)   RECORD NAMES
              1      20      137.17       500      610      700      900      950      970     1000      129      960     1100   
                                          VAR    BASINP    GEOM    SYMINP    ZMAT    AOBASIS   BASIS     P2S    ABASIS      S 
                                         1400     1410     1200     1210     1080     1600     1650     1700      960(1)  1380   
                                           T        V       H0       H01     AOSYM     SMH    MOLCAS    OPER    ABASIS    JKOP   

              2       5        0.98       700     1000     2100     7360     7350   
                                         GEOM     BASIS     RHF    F12ABS    EF12   

 PROGRAMS   *        TOTAL   CCSD(T)        HF       INT
 CPU TIMES  *        51.41     44.96      1.38      5.00
 REAL TIME  *        55.12 SEC
 DISK USED  *         1.30 GB      
 SF USED    *         1.34 GB      
 GA USED    *         2.40 MB       (max)       0.00 MB       (current)
 **********************************************************************************************************************************

     CCSD(T)-F12        HF-SCF  
   -264.76003068   -263.76915756
 **********************************************************************************************************************************
 Variable memory released
