
 Primary working directories    : /scratch/kee
 Secondary working directories  : /scratch/kee
 Wavefunction directory         : /home/kee/wfu/
 Main file repository           : /scratch/kee/

 ARCHNAME  : Linux/x86_64
 FC        : /opt/intel/composer_xe_2015.0.090/bin/intel64/ifort
 FCVERSION : 15.0.0
 BLASLIB   : -L/opt/intel/mkl/lib/intel64 -lmkl_intel_ilp64 -lmkl_sequential -lmkl_core
 id        : emory

 Nodes     nprocs
 node25       3
 Number of processes for MPI-2 version of Molpro:   nprocs(total)=    4   nprocs(compute)=    3   nprocs(helper)=    1
 ga_uses_ma=false, calling ma_init with nominal heap.
 GA-space will be limited to   8.0 MW (determined by -G option)

 Using customized tuning parameters: mindgm=7; mindgv=32; mindgc=1; mindgr=1; noblas=0; mincuda=1000; minvec=7
 default implementation of scratch files=sf  

 ***,co2h2o
 memory,100,m
 basis avtz
 geomtype = xyz
 geometry = {
 6
       0.00000000
 O     0.01288800    1.16233300    0.00000000
 O     0.01288800   -1.16233300    0.00000000
 O     4.80363900    0.00000000    0.00000000
 H     4.22249900    0.76306800    0.00000000
 H     4.22249900   -0.76306800    0.00000000
 C     0.00363900    0.00000000    0.00000000
 }
 hf
 ccsd(t)-f12
 ---

 Variables initialized (665), CPU time= 0.01 sec
 Commands  initialized (462), CPU time= 0.00 sec, 486 directives.
 Default parameters read. Elapsed time= 0.03 sec

 Checking input...
 Passed
1


                                         ***  PROGRAM SYSTEM MOLPRO  ***
                         Copyright, University College Cardiff Consultants Limited, 2008

                                    Version 2010.1 linked 9 Dec 2014 15:06:28 


 **********************************************************************************************************************************
 LABEL *   co2h2o                                                                        
 Linux-2.6.32-504.el6.x86_64/node25(x86_64) 64 bit mpp version                           DATE: 15-Dec-16          TIME: 00:21:06  
 **********************************************************************************************************************************

 Patch level:      19
 **********************************************************************************************************************************

 Variable memory set to  100000000 words,  buffer space   230000 words

 SETTING BASIS          =    AVTZ
 SETTING GEOMTYPE       =    XYZ

Geometry recognized as XYZ



 Recomputing integrals since basis changed


 Using spherical harmonics

 Library entry O      S aug-cc-pVTZ          selected for orbital group  1
 Library entry O      P aug-cc-pVTZ          selected for orbital group  1
 Library entry O      D aug-cc-pVTZ          selected for orbital group  1
 Library entry O      F aug-cc-pVTZ          selected for orbital group  1
 Library entry H      S aug-cc-pVTZ          selected for orbital group  2
 Library entry H      P aug-cc-pVTZ          selected for orbital group  2
 Library entry H      D aug-cc-pVTZ          selected for orbital group  2
 Library entry C      S aug-cc-pVTZ          selected for orbital group  3
 Library entry C      P aug-cc-pVTZ          selected for orbital group  3
 Library entry C      D aug-cc-pVTZ          selected for orbital group  3
 Library entry C      F aug-cc-pVTZ          selected for orbital group  3

1PROGRAM * SEWARD (Integral evaluation for generally contracted gaussian basis sets)     Author: Roland Lindh, 1990

 Geometry written to block  1 of record 700


 Point group  C2v 



 ATOMIC COORDINATES

 NR  ATOM    CHARGE       X              Y              Z

   1  O       8.00    0.024354790    2.196491044    0.000000000
   2  O       8.00    0.024354790   -2.196491044    0.000000000
   3  O       8.00    9.077562144    0.000000000    0.000000000
   4  H       1.00    7.979366700    1.441989540    0.000000000
   5  H       1.00    7.979366700   -1.441989540    0.000000000
   6  C       6.00    0.006876713    0.000000000    0.000000000

 Bond lengths in Bohr (Angstrom)

 1-6  2.196560581  2-6  2.196560581  3-4  1.812558155  3-5  1.812558155
     (1.162369798)     (1.162369798)     (0.959164466)     (0.959164466)

 Bond angles

  1-6-2  179.08818302   4-3-5  105.41539946

 NUCLEAR CHARGE:                   32
 NUMBER OF PRIMITIVE AOS:         322
 NUMBER OF SYMMETRY AOS:          282
 NUMBER OF CONTRACTIONS:          230   (  84A1  +  68B1  +  45B2  +  33A2  )
 NUMBER OF CORE ORBITALS:           4   (   3A1  +   1B1  +   0B2  +   0A2  )
 NUMBER OF VALENCE ORBITALS:       18   (   8A1  +   6B1  +   3B2  +   1A2  )


 NUCLEAR REPULSION ENERGY   91.79175603


 Eigenvalues of metric

         1 0.349E-03 0.372E-03 0.896E-03 0.150E-02 0.291E-02 0.320E-02 0.387E-02 0.431E-02
         2 0.331E-03 0.388E-03 0.910E-03 0.165E-02 0.173E-02 0.314E-02 0.467E-02 0.607E-02
         3 0.318E-02 0.568E-02 0.135E-01 0.291E-01 0.316E-01 0.361E-01 0.589E-01 0.640E-01
         4 0.347E-02 0.123E-01 0.296E-01 0.361E-01 0.556E-01 0.678E-01 0.111E+00 0.140E+00


 Contracted 2-electron integrals neglected if value below      1.0D-11
 AO integral compression algorithm  1   Integral accuracy      1.0D-11

     304.873 MB (compressed) written to integral file ( 34.0%)

     Node minimum: 89.915 MB, node maximum: 116.916 MB


 NUMBER OF SORTED TWO-ELECTRON INTEGRALS:   30156294.     BUFFER LENGTH:  32768
 NUMBER OF SEGMENTS:   2  SEGMENT LENGTH:   15999663      RECORD LENGTH: 524288

 Memory used in sort:      16.56 MW

 SORT1 READ   112128696. AND WROTE    21589747. INTEGRALS IN     63 RECORDS. CPU TIME:     2.19 SEC, REAL TIME:     2.45 SEC
 SORT2 READ    65408325. AND WROTE    90461370. INTEGRALS IN   1338 RECORDS. CPU TIME:     0.59 SEC, REAL TIME:     0.79 SEC

 Node minimum:    30151286.  Node maximum:    30156294. integrals

 OPERATOR DM      FOR CENTER  0  COORDINATES:    0.000000    0.000000    0.000000


 **********************************************************************************************************************************
 DATASETS  * FILE   NREC   LENGTH (MB)   RECORD NAMES
              1      18        3.24       500      610      700      900      950      970     1000      129      960     1100   
                                          VAR    BASINP    GEOM    SYMINP    ZMAT    AOBASIS   BASIS     P2S    ABASIS      S 
                                         1400     1410     1200     1210     1080     1600     1650     1700   
                                           T        V       H0       H01     AOSYM     SMH    MOLCAS    OPER   

 PROGRAMS   *        TOTAL       INT
 CPU TIMES  *         5.58      5.52
 REAL TIME  *         6.26 SEC
 DISK USED  *         1.08 GB      
 GA USED    *         0.00 MB       (max)       0.00 MB       (current)
 **********************************************************************************************************************************

1PROGRAM * RHF-SCF (CLOSED SHELL)       Authors: W. Meyer, H.-J. Werner


 NUMBER OF ELECTRONS:      16+   16-
 CONVERGENCE THRESHOLDS:    1.00E-05 (Density)    1.00E-07 (Energy)
 MAX. NUMBER OF ITERATIONS:       60
 INTERPOLATION TYPE:            DIIS
 INTERPOLATION STEPS:              2 (START)      1 (STEP)
 LEVEL SHIFTS:                  0.00 (CLOSED)  0.00 (OPEN) 



 Orbital guess generated from atomic densities. Full valence occupancy:   11   7   3   1

 Molecular orbital dump at record        2100.2

 Initial alpha occupancy:   8   5   2   1
 Initial beta  occupancy:   8   5   2   1
 Wave function symmetry:    1

 ITERATION    DDIFF          GRAD             ENERGY        2-EL.EN.            DIPOLE MOMENTS         DIIS
    1      0.000D+00      0.000D+00      -263.65923220    378.353234   -1.15296    0.00000    0.00000    0
    2      0.000D+00      0.884D-02      -263.72464344    374.129761   -0.69215    0.00000    0.00000    1
    3      0.142D-01      0.602D-02      -263.76858089    376.606893   -0.80517    0.00000    0.00000    2
    4      0.585D-02      0.562D-03      -263.76907661    376.388533   -0.80815    0.00000    0.00000    3
    5      0.690D-03      0.163D-03      -263.76913455    376.395927   -0.80299    0.00000    0.00000    4
    6      0.256D-03      0.655D-04      -263.76914162    376.409612   -0.80370    0.00000    0.00000    5
    7      0.844D-04      0.163D-04      -263.76914235    376.401553   -0.80323    0.00000    0.00000    6
    8      0.279D-04      0.356D-05      -263.76914240    376.402846   -0.80323    0.00000    0.00000    7
    9      0.765D-05      0.119D-05      -263.76914240    376.402681   -0.80320    0.00000    0.00000    0

 Final occupancy:   8   5   2   1

 !RHF STATE 1.1 Energy               -263.769142399346
 Nuclear energy                        91.79175603
 One-electron energy                 -543.76223869
 Two-electron energy                  188.20134026
 Virial quotient                       -1.00184102
 !RHF STATE 1.1 Dipole moment          -0.80319806     0.00000000     0.00000000
 Dipole moment /Debye                  -2.04139214     0.00000000     0.00000000

 Orbital energies:

         1.1          2.1          3.1          4.1          5.1          6.1          7.1          8.1          9.1         10.1
    -20.662139   -20.569536   -11.470890    -1.539679    -1.354355    -0.809848    -0.723953    -0.585079     0.027863     0.054597

         1.2          2.2          3.2          4.2          5.2          6.2          7.2
    -20.662185    -1.486601    -0.752017    -0.720808    -0.553489     0.049261     0.085142

         1.3          2.3          3.3          4.3
     -0.723653    -0.512233     0.067583     0.160889

         1.4          2.4          3.4
     -0.553315     0.156886     0.268495


 **********************************************************************************************************************************
 DATASETS  * FILE   NREC   LENGTH (MB)   RECORD NAMES
              1      18        3.25       500      610      700      900      950      970     1000      129      960     1100   
                                          VAR    BASINP    GEOM    SYMINP    ZMAT    AOBASIS   BASIS     P2S    ABASIS      S 
                                         1400     1410     1200     1210     1080     1600     1650     1700   
                                           T        V       H0       H01     AOSYM     SMH    MOLCAS    OPER   

              2       3        0.68       700     1000     2100   
                                         GEOM     BASIS     RHF  

 PROGRAMS   *        TOTAL        HF       INT
 CPU TIMES  *         6.97      1.39      5.52
 REAL TIME  *         7.76 SEC
 DISK USED  *         1.10 GB      
 SF USED    *         0.06 MB      
 GA USED    *         0.00 MB       (max)       0.00 MB       (current)
 **********************************************************************************************************************************


1PROGRAM * CCSD (Closed-shell coupled cluster)     Authors: C. Hampel, H.-J. Werner, 1991, M. Deegan, P.J. Knowles, 1992

                                  CCSD-F12 implementation by  H.-J. Werner, 2007

                   Density fitting integral evaluation by F.R. Manby, 2003,2007, G. Knizia, 2010

 Basis set CC-PVTZ/JKFIT generated.      Number of basis functions:   376 
 Basis set AUG-CC-PVTZ/MP2FIT generated. Number of basis functions:   516 

 Convergence thresholds:  THRVAR = 1.00D-08  THRDEN = 1.00D-06

 CCSD(T)     terms to be evaluated (factor= 1.000)


 Number of core orbitals:           4 (   3   1   0   0 )
 Number of closed-shell orbitals:  12 (   5   4   2   1 )
 Number of external orbitals:     214 (  76  63  43  32 )

 Molecular orbitals read from record     2100.2  Type=RHF/CANONICAL (state 1.1)

 MP2-F12 correlation treatment (H.-J. Werner, 2006)
 --------------------------------------------------

 Using MP2-F12 with ansatz 3C(FIX)

 Using projected zeroth-order Hamiltonian (+Z)

 FOCKRIB=T FOCKRIC=T FOCKRIP=T CABSP=T CABSA=T CABSK=T CABSF=T GBC=F EBC=F DMAT=T NOFIK=T NOPAO=1 SOLVE=-1  USEPAO=0
 EXCH_A= T EXCH_B= F EXCH_C= F EXCH_P= F
 
 Geminal basis:    OPTFULL  GEM_TYPE=SLATER  BETA=1.0  NGEM=6

 Optimizing Gaussian exponents for each gem_beta

 Geminal optimization for beta= 1.0000
 Weight function:   m=0, omega= 1.4646

 Augmented Hessian optimization of geminal fit. Trust ratio= 0.40000
 Convergence reached after   2 iterations. Final gradient= 8.24D-16, Step= 4.32D-06, Delta= 1.28D-09
 
 Alpha:                 0.19532     0.81920     2.85917     9.50073    35.69989   197.79328
 Coeff:                 0.27070     0.30552     0.18297     0.10986     0.06810     0.04224
 

 Symmetry turned off. Reference energy:       -263.769142399346

 All pairs explicitly correlated. Number of r12-pairs:           78
 
 AO(A)-basis ORBITAL           loaded. Number of functions:     230
 RI(R)-basis CC-PVTZ/JKFIT     loaded. Number of functions:     376
 DF-basis CC-PVTZ/JKFIT        loaded. Number of functions:     376

 Screening thresholds:   THRAO=  1.00D-10  THRMO=  1.00D-09  THRPROD=  1.00D-09
                         THRSW=  1.00D-05  THROV=  1.00D-12  THRF12=   1.00D-08

 CPU time for Fock operators                      0.93 sec
 
 Construction of ABS:
 Smallest eigenvalue of S          2.57E-04  (threshold= 1.00E-08)
 Ratio eigmin/eigmax               1.83E-06  (threshold= 1.00E-09)
 Smallest eigenvalue of S kept     2.57E-04  (threshold= 2.57E-04, 0 functions deleted, 376 kept)
 
 Construction of CABS:
 Smallest eigenvalue of S          2.29E-08  (threshold= 1.00E-08)
 Ratio eigmin/eigmax               2.29E-08  (threshold= 1.00E-09)
 Smallest eigenvalue of S kept     2.29E-08  (threshold= 2.29E-08, 0 functions deleted, 376 kept)
 
 CPU time for CABS singles                        0.16 sec

 CABS-singles contribution of  -0.01592398 patched into reference energy.
 New reference energy        -263.78506638
 
 AO(A)-basis ORBITAL           loaded. Number of functions:     230
 RI(R)-basis CC-PVTZ/JKFIT     loaded. Number of functions:     376
 DF-basis AUG-CC-PVTZ/MP2FIT   loaded. Number of functions:     516

 Screening thresholds:   THRAO=  1.00D-10  THRMO=  1.00D-09  THRPROD=  1.00D-09
                         THRSW=  1.00D-05  THROV=  1.00D-12  THRF12=   1.00D-08

 CPU time for 3-index integral evaluation         2.62 sec
 CPU time for first  half transformation          0.26 sec (11033.2 MFLOP/sec)
 CPU time for sorting                             0.16 sec
 CPU time for fitting                             0.05 sec (27861.0 MFLOP/sec)
 CPU time for tilde quantities                    0.05 sec (36977.6 MFLOP/sec)
 CPU time for assembly                            0.76 sec (30471.8 MFLOP/sec)
 CPU time for tranop_f12                          0.92 sec (34817.6 MFLOP/sec)
 CPU time for f12 integrals (total)               6.91 sec
 F12-matrices built in  3 passes.
 F12-matrices built in  3 passes.
 F12-matrices built in  3 passes.
 F12-matrices built in  3 passes.
 FC-matrix built in  3 passes.
 CPU time for f12 matrices (total)                0.48 sec

 Diagonal F12 approximation with fixed coefficients:  TSING= 0.500,  TTRIP= 0.250 (scaled by -1/beta)

 DF-MP2-F12 energy corrections:
 ------------------------------
 Approx.                                    Singlet             Triplet             Total
 DF-MP2-F12/3*C(DX,FIX)                -0.097401855383     -0.016926186662     -0.114328042044
 DF-MP2-F12/3*C(FIX)                   -0.079823531115     -0.013389963256     -0.093213494370
 DF-MP2-F12/3C(FIX)                    -0.080187596714     -0.013414719498     -0.093602316212

 DF-MP2-F12 correlation energies:
 --------------------------------
 Approx.                                    Singlet             Triplet             Ecorr            Total Energy
 DF-MP2                                -0.537906047307     -0.343299358193     -0.881205405500   -264.666271780645
 DF-MP2-F12/3*C(DX,FIX)                -0.635307902690     -0.360225544854     -0.995533447544   -264.780599822689
 DF-MP2-F12/3*C(FIX)                   -0.617729578422     -0.356689321448     -0.974418899871   -264.759485275015
 DF-MP2-F12/3C(FIX)                    -0.618093644021     -0.356714077691     -0.974807721712   -264.759874096856

 SCS-DF-MP2 energies (F_SING= 1.20000  F_TRIP= 0.62222  F_PARALLEL= 0.33333):
 ----------------------------------------------------------------------------
 SCS-DF-MP2                            -0.859095746311   -264.644162121456
 SCS-DF-MP2-F12/3*C(DX,FIX)            -0.986509822248   -264.771576197393
 SCS-DF-MP2-F12/3*C(FIX)               -0.963215516341   -264.748281891486
 SCS-DF-MP2-F12/3C(FIX)                -0.963667798944   -264.748734174089

 Symmetry restored.
 Symmetry transformation completed.

 Number of N-1 electron functions:              12
 Number of N-2 electron functions:              78
 Number of singly external CSFs:               750
 Number of doubly external CSFs:            844332
 Total number of CSFs:                      845083

 Pair and operator lists are different

 Length of J-op  integral file:             462.28 MB
 Length of K-op  integral file:             502.25 MB
 Length of 3-ext integral record:             0.00 MB

 Memory could be reduced to 38.71 Mwords without degradation in triples

 Integral transformation finished. Total CPU:   1.42 sec, npass=  1  Memory used:   7.09 MW

 Reference energy:                   -263.78506638

 Adding F12 terms to K(Cij), methodcc=6,  factor=1.0

 ITER.      SQ.NORM     CORR.ENERGY   TOTAL ENERGY   ENERGY CHANGE        DEN1      VAR(S)    VAR(P)  DIIS     TIME
   1      1.20231486    -0.86309983  -264.64816621     0.01812141     0.04680731  0.72D-02  0.56D-02  1  1    11.19
   2      1.21665776    -0.85886119  -264.64392757     0.00423864    -0.02018782  0.86D-04  0.59D-03  2  2    12.15
   3      1.22203026    -0.85895730  -264.64402368    -0.00009611    -0.00236620  0.13D-03  0.33D-04  3  3    13.11
   4      1.22483957    -0.85882852  -264.64389489     0.00012879    -0.00141364  0.76D-05  0.41D-05  4  4    14.08
   5      1.22587332    -0.85879058  -264.64385695     0.00003794    -0.00036727  0.56D-06  0.29D-06  5  5    15.04
   6      1.22603653    -0.85876367  -264.64383005     0.00002690    -0.00000809  0.41D-07  0.24D-07  6  6    16.02
   7      1.22606622    -0.85876124  -264.64382761     0.00000244    -0.00000627  0.26D-08  0.41D-08  6  4    17.00
   8      1.22606661    -0.85876075  -264.64382713     0.00000048     0.00000195  0.40D-09  0.27D-09  6  1    18.00
   9      1.22606725    -0.85876082  -264.64382720    -0.00000007     0.00000056  0.27D-10  0.22D-10  6  2    19.00

 Norm of t1 vector:      0.10610956      S-energy:    -0.00000003      T1 diagnostic:  0.01531560
                                                                       D1 diagnostic:  0.04499493

 Adding energy correction from Wij-K(Fij), methodcc=6  factor=1.0
 
  CCSD correlation energy              -0.858760819866
  MP2-F12 correction (uncoupled)       -0.092443028840
  C*T doubles correction               -0.001475033016
  f12b correction                       0.015405039341


 Total CPU time for triples:     26.38 sec


 RESULTS
 =======

  Reference energy                   -263.769142399346
  F12 singles correction               -0.015923975799

 F12 singles corrections added to reference energy

  New reference energy               -263.785066375145

  F12a singlet correction              -0.080385790543
  F12a triplet correction              -0.013532271312
  F12a total correction                -0.093918061856

 F12a corrections for ansatz F12/3C(FIX) added to CCSD energy
 
  CCSD-F12a singlet pair energy        -0.642006105342
  CCSD-F12a triplet pair energy        -0.310672750063
  CCSD-F12a correlation energy         -0.952678881722

  Triples (T) contribution             -0.037706979775
  Total correlation energy             -0.990385861497

  CCSD-F12a total energy             -264.737745256867
  CCSD[T]-F12a energy                -264.778004837979
  CCSD-T-F12a energy                 -264.774511671385
 !CCSD(T)-F12a total energy          -264.775452236642

 F12b corrections for ansatz F12/3C(FIX) added to CCSD(T)-F12a energy

  CCSD-F12b singlet pair energy        -0.627824295205
  CCSD-F12b triplet pair energy        -0.309449520859
  CCSD-F12b correlation energy         -0.937273842381

  Triples (T) contribution             -0.037706979775
  Total correlation energy             -0.974980822157

  CCSD-F12b total energy             -264.722340217526
  CCSD[T]-F12b energy                -264.762599798639
  CCSD-T-F12b energy                 -264.759106632044
 !CCSD(T)-F12b total energy          -264.760047197301

 Timing summary (sec):

 STEP                 CPU(USER)    SYS     CPU(TOT)    WALL
 Transformation          1.42      0.20      1.62      1.63
 CCSD iterations         8.73      0.68      9.41      9.41
 Triples                26.38      0.73     27.11     27.10
 MP2-F12                 8.86      1.13      9.99      9.99
 F12b energy             0.61      0.02      0.63      0.63

 Program statistics:

 Available memory in ccsd:                99998934
 Min. memory needed in ccsd:               2252999
 Max. memory used in ccsd:                 3011949
 Max. memory used in cckext:               2777209 (10 integral passes)



 **********************************************************************************************************************************
 DATASETS  * FILE   NREC   LENGTH (MB)   RECORD NAMES
              1      20      137.17       500      610      700      900      950      970     1000      129      960     1100   
                                          VAR    BASINP    GEOM    SYMINP    ZMAT    AOBASIS   BASIS     P2S    ABASIS      S 
                                         1400     1410     1200     1210     1080     1600     1650     1700      960(1)  1380   
                                           T        V       H0       H01     AOSYM     SMH    MOLCAS    OPER    ABASIS    JKOP   

              2       5        0.98       700     1000     2100     7360     7350   
                                         GEOM     BASIS     RHF    F12ABS    EF12   

 PROGRAMS   *        TOTAL   CCSD(T)        HF       INT
 CPU TIMES  *        53.18     46.21      1.39      5.52
 REAL TIME  *        56.78 SEC
 DISK USED  *         1.32 GB      
 SF USED    *         1.34 GB      
 GA USED    *         2.40 MB       (max)       0.00 MB       (current)
 **********************************************************************************************************************************

     CCSD(T)-F12        HF-SCF  
   -264.76004720   -263.76914240
 **********************************************************************************************************************************
 Variable memory released
