
 Primary working directories    : /scratch/kee
 Secondary working directories  : /scratch/kee
 Wavefunction directory         : /home/kee/wfu/
 Main file repository           : /scratch/kee/

 ARCHNAME  : Linux/x86_64
 FC        : /opt/intel/composer_xe_2015.0.090/bin/intel64/ifort
 FCVERSION : 15.0.0
 BLASLIB   : -L/opt/intel/mkl/lib/intel64 -lmkl_intel_ilp64 -lmkl_sequential -lmkl_core
 id        : emory

 Nodes     nprocs
 node17       3
 Number of processes for MPI-2 version of Molpro:   nprocs(total)=    4   nprocs(compute)=    3   nprocs(helper)=    1
 ga_uses_ma=false, calling ma_init with nominal heap.
 GA-space will be limited to   8.0 MW (determined by -G option)

 Using customized tuning parameters: mindgm=7; mindgv=32; mindgc=1; mindgr=1; noblas=0; mincuda=1000; minvec=7
 default implementation of scratch files=sf  

 ***,co2h2o
 memory,100,m
 basis avtz
 geomtype = xyz
 geometry = {
 6
       0.00000000
 O     0.01288800    1.16233300    0.00000000
 O     0.01288800   -1.16233300    0.00000000
 O     8.15363900    0.00000000    0.00000000
 H     7.57249900    0.76306800    0.00000000
 H     7.57249900   -0.76306800    0.00000000
 C     0.00363900    0.00000000    0.00000000
 }
 hf
 ccsd(t)-f12
 ---

 Variables initialized (665), CPU time= 0.00 sec
 Commands  initialized (462), CPU time= 0.01 sec, 486 directives.
 Default parameters read. Elapsed time= 0.04 sec

 Checking input...
 Passed
1


                                         ***  PROGRAM SYSTEM MOLPRO  ***
                         Copyright, University College Cardiff Consultants Limited, 2008

                                    Version 2010.1 linked 9 Dec 2014 15:06:28 


 **********************************************************************************************************************************
 LABEL *   co2h2o                                                                        
 Linux-2.6.32-504.el6.x86_64/node17(x86_64) 64 bit mpp version                           DATE: 15-Dec-16          TIME: 00:12:09  
 **********************************************************************************************************************************

 Patch level:      19
 **********************************************************************************************************************************

 Variable memory set to  100000000 words,  buffer space   230000 words

 SETTING BASIS          =    AVTZ
 SETTING GEOMTYPE       =    XYZ

Geometry recognized as XYZ



 Recomputing integrals since basis changed


 Using spherical harmonics

 Library entry O      S aug-cc-pVTZ          selected for orbital group  1
 Library entry O      P aug-cc-pVTZ          selected for orbital group  1
 Library entry O      D aug-cc-pVTZ          selected for orbital group  1
 Library entry O      F aug-cc-pVTZ          selected for orbital group  1
 Library entry H      S aug-cc-pVTZ          selected for orbital group  2
 Library entry H      P aug-cc-pVTZ          selected for orbital group  2
 Library entry H      D aug-cc-pVTZ          selected for orbital group  2
 Library entry C      S aug-cc-pVTZ          selected for orbital group  3
 Library entry C      P aug-cc-pVTZ          selected for orbital group  3
 Library entry C      D aug-cc-pVTZ          selected for orbital group  3
 Library entry C      F aug-cc-pVTZ          selected for orbital group  3

1PROGRAM * SEWARD (Integral evaluation for generally contracted gaussian basis sets)     Author: Roland Lindh, 1990

 Geometry written to block  1 of record 700


 Point group  C2v 



 ATOMIC COORDINATES

 NR  ATOM    CHARGE       X              Y              Z

   1  O       8.00    0.024354790    2.196491044    0.000000000
   2  O       8.00    0.024354790   -2.196491044    0.000000000
   3  O       8.00   15.408144684    0.000000000    0.000000000
   4  H       1.00   14.309949240    1.441989540    0.000000000
   5  H       1.00   14.309949240   -1.441989540    0.000000000
   6  C       6.00    0.006876713    0.000000000    0.000000000

 Bond lengths in Bohr (Angstrom)

 1-6  2.196560581  2-6  2.196560581  3-4  1.812558155  3-5  1.812558155
     (1.162369798)     (1.162369798)     (0.959164466)     (0.959164466)

 Bond angles

  1-6-2  179.08818302   4-3-5  105.41539946

 NUCLEAR CHARGE:                   32
 NUMBER OF PRIMITIVE AOS:         322
 NUMBER OF SYMMETRY AOS:          282
 NUMBER OF CONTRACTIONS:          230   (  84A1  +  68B1  +  45B2  +  33A2  )
 NUMBER OF CORE ORBITALS:           4   (   3A1  +   1B1  +   0B2  +   0A2  )
 NUMBER OF VALENCE ORBITALS:       18   (   8A1  +   6B1  +   3B2  +   1A2  )


 NUCLEAR REPULSION ENERGY   81.83952401


 Eigenvalues of metric

         1 0.375E-03 0.414E-03 0.902E-03 0.184E-02 0.318E-02 0.321E-02 0.405E-02 0.532E-02
         2 0.349E-03 0.390E-03 0.922E-03 0.167E-02 0.175E-02 0.347E-02 0.512E-02 0.627E-02
         3 0.318E-02 0.595E-02 0.136E-01 0.297E-01 0.319E-01 0.365E-01 0.590E-01 0.641E-01
         4 0.348E-02 0.124E-01 0.296E-01 0.362E-01 0.561E-01 0.680E-01 0.111E+00 0.140E+00


 Contracted 2-electron integrals neglected if value below      1.0D-11
 AO integral compression algorithm  1   Integral accuracy      1.0D-11

     180.355 MB (compressed) written to integral file ( 24.2%)

     Node minimum: 50.332 MB, node maximum: 70.255 MB


 NUMBER OF SORTED TWO-ELECTRON INTEGRALS:   30156294.     BUFFER LENGTH:  32768
 NUMBER OF SEGMENTS:   2  SEGMENT LENGTH:   15999663      RECORD LENGTH: 524288

 Memory used in sort:      16.56 MW

 SORT1 READ    93251770. AND WROTE    11367145. INTEGRALS IN     34 RECORDS. CPU TIME:     1.50 SEC, REAL TIME:     1.65 SEC
 SORT2 READ    34252841. AND WROTE    90461370. INTEGRALS IN    684 RECORDS. CPU TIME:     0.40 SEC, REAL TIME:     0.53 SEC

 Node minimum:    30151286.  Node maximum:    30156294. integrals

 OPERATOR DM      FOR CENTER  0  COORDINATES:    0.000000    0.000000    0.000000


 **********************************************************************************************************************************
 DATASETS  * FILE   NREC   LENGTH (MB)   RECORD NAMES
              1      18        3.24       500      610      700      900      950      970     1000      129      960     1100   
                                          VAR    BASINP    GEOM    SYMINP    ZMAT    AOBASIS   BASIS     P2S    ABASIS      S 
                                         1400     1410     1200     1210     1080     1600     1650     1700   
                                           T        V       H0       H01     AOSYM     SMH    MOLCAS    OPER   

 PROGRAMS   *        TOTAL       INT
 CPU TIMES  *         3.60      3.53
 REAL TIME  *         3.99 SEC
 DISK USED  *       590.02 MB      
 GA USED    *         0.00 MB       (max)       0.00 MB       (current)
 **********************************************************************************************************************************

1PROGRAM * RHF-SCF (CLOSED SHELL)       Authors: W. Meyer, H.-J. Werner


 NUMBER OF ELECTRONS:      16+   16-
 CONVERGENCE THRESHOLDS:    1.00E-05 (Density)    1.00E-07 (Energy)
 MAX. NUMBER OF ITERATIONS:       60
 INTERPOLATION TYPE:            DIIS
 INTERPOLATION STEPS:              2 (START)      1 (STEP)
 LEVEL SHIFTS:                  0.00 (CLOSED)  0.00 (OPEN) 



 Orbital guess generated from atomic densities. Full valence occupancy:   11   7   3   1

 Molecular orbital dump at record        2100.2

 Initial alpha occupancy:   8   5   2   1
 Initial beta  occupancy:   8   5   2   1
 Wave function symmetry:    1

 ITERATION    DDIFF          GRAD             ENERGY        2-EL.EN.            DIPOLE MOMENTS         DIIS
    1      0.000D+00      0.000D+00      -263.66008852    358.877908   -1.15215    0.00000    0.00000    0
    2      0.000D+00      0.882D-02      -263.72535553    354.449045   -0.67701    0.00000    0.00000    1
    3      0.142D-01      0.599D-02      -263.76883756    356.977795   -0.79278    0.00000    0.00000    2
    4      0.583D-02      0.563D-03      -263.76933319    356.763092   -0.79662    0.00000    0.00000    3
    5      0.690D-03      0.164D-03      -263.76939124    356.767603   -0.79118    0.00000    0.00000    4
    6      0.256D-03      0.659D-04      -263.76939839    356.781686   -0.79191    0.00000    0.00000    5
    7      0.847D-04      0.162D-04      -263.76939912    356.773488   -0.79146    0.00000    0.00000    6
    8      0.278D-04      0.356D-05      -263.76939917    356.774782   -0.79146    0.00000    0.00000    7
    9      0.761D-05      0.119D-05      -263.76939917    356.774603   -0.79143    0.00000    0.00000    0

 Final occupancy:   8   5   2   1

 !RHF STATE 1.1 Energy               -263.769399170396
 Nuclear energy                        81.83952401
 One-electron energy                 -523.99622490
 Two-electron energy                  178.38730171
 Virial quotient                       -1.00184493
 !RHF STATE 1.1 Dipole moment          -0.79142870     0.00000000     0.00000000
 Dipole moment /Debye                  -2.01147936     0.00000000     0.00000000

 Orbital energies:

         1.1          2.1          3.1          4.1          5.1          6.1          7.1          8.1          9.1         10.1
    -20.656672   -20.567633   -11.465507    -1.534193    -1.352454    -0.804514    -0.718315    -0.583287     0.025507     0.047518

         1.2          2.2          3.2          4.2          5.2          6.2          7.2
    -20.656717    -1.481141    -0.746710    -0.719010    -0.547990     0.046414     0.078077

         1.3          2.3          3.3          4.3
     -0.718279    -0.510415     0.070039     0.158100

         1.4          2.4          3.4
     -0.547973     0.160998     0.264468


 **********************************************************************************************************************************
 DATASETS  * FILE   NREC   LENGTH (MB)   RECORD NAMES
              1      18        3.25       500      610      700      900      950      970     1000      129      960     1100   
                                          VAR    BASINP    GEOM    SYMINP    ZMAT    AOBASIS   BASIS     P2S    ABASIS      S 
                                         1400     1410     1200     1210     1080     1600     1650     1700   
                                           T        V       H0       H01     AOSYM     SMH    MOLCAS    OPER   

              2       3        0.68       700     1000     2100   
                                         GEOM     BASIS     RHF  

 PROGRAMS   *        TOTAL        HF       INT
 CPU TIMES  *         4.58      0.97      3.53
 REAL TIME  *         5.04 SEC
 DISK USED  *       607.52 MB      
 SF USED    *         0.06 MB      
 GA USED    *         0.00 MB       (max)       0.00 MB       (current)
 **********************************************************************************************************************************


1PROGRAM * CCSD (Closed-shell coupled cluster)     Authors: C. Hampel, H.-J. Werner, 1991, M. Deegan, P.J. Knowles, 1992

                                  CCSD-F12 implementation by  H.-J. Werner, 2007

                   Density fitting integral evaluation by F.R. Manby, 2003,2007, G. Knizia, 2010

 Basis set CC-PVTZ/JKFIT generated.      Number of basis functions:   376 
 Basis set AUG-CC-PVTZ/MP2FIT generated. Number of basis functions:   516 

 Convergence thresholds:  THRVAR = 1.00D-08  THRDEN = 1.00D-06

 CCSD(T)     terms to be evaluated (factor= 1.000)


 Number of core orbitals:           4 (   3   1   0   0 )
 Number of closed-shell orbitals:  12 (   5   4   2   1 )
 Number of external orbitals:     214 (  76  63  43  32 )

 Molecular orbitals read from record     2100.2  Type=RHF/CANONICAL (state 1.1)

 MP2-F12 correlation treatment (H.-J. Werner, 2006)
 --------------------------------------------------

 Using MP2-F12 with ansatz 3C(FIX)

 Using projected zeroth-order Hamiltonian (+Z)

 FOCKRIB=T FOCKRIC=T FOCKRIP=T CABSP=T CABSA=T CABSK=T CABSF=T GBC=F EBC=F DMAT=T NOFIK=T NOPAO=1 SOLVE=-1  USEPAO=0
 EXCH_A= T EXCH_B= F EXCH_C= F EXCH_P= F
 
 Geminal basis:    OPTFULL  GEM_TYPE=SLATER  BETA=1.0  NGEM=6

 Optimizing Gaussian exponents for each gem_beta

 Geminal optimization for beta= 1.0000
 Weight function:   m=0, omega= 1.4646

 Augmented Hessian optimization of geminal fit. Trust ratio= 0.40000
 Convergence reached after   2 iterations. Final gradient= 8.24D-16, Step= 4.32D-06, Delta= 1.28D-09
 
 Alpha:                 0.19532     0.81920     2.85917     9.50073    35.69989   197.79328
 Coeff:                 0.27070     0.30552     0.18297     0.10986     0.06810     0.04224
 

 Symmetry turned off. Reference energy:       -263.769399170396

 All pairs explicitly correlated. Number of r12-pairs:           78
 
 AO(A)-basis ORBITAL           loaded. Number of functions:     230
 RI(R)-basis CC-PVTZ/JKFIT     loaded. Number of functions:     376
 DF-basis CC-PVTZ/JKFIT        loaded. Number of functions:     376

 Screening thresholds:   THRAO=  1.00D-10  THRMO=  1.00D-09  THRPROD=  1.00D-09
                         THRSW=  1.00D-05  THROV=  1.00D-12  THRF12=   1.00D-08

 CPU time for Fock operators                      0.90 sec
 
 Construction of ABS:
 Smallest eigenvalue of S          2.57E-04  (threshold= 1.00E-08)
 Ratio eigmin/eigmax               1.83E-06  (threshold= 1.00E-09)
 Smallest eigenvalue of S kept     2.57E-04  (threshold= 2.57E-04, 0 functions deleted, 376 kept)
 
 Construction of CABS:
 Smallest eigenvalue of S          2.30E-08  (threshold= 1.00E-08)
 Ratio eigmin/eigmax               2.30E-08  (threshold= 1.00E-09)
 Smallest eigenvalue of S kept     2.30E-08  (threshold= 2.30E-08, 0 functions deleted, 376 kept)
 
 CPU time for CABS singles                        0.16 sec

 CABS-singles contribution of  -0.01592062 patched into reference energy.
 New reference energy        -263.78531979
 
 AO(A)-basis ORBITAL           loaded. Number of functions:     230
 RI(R)-basis CC-PVTZ/JKFIT     loaded. Number of functions:     376
 DF-basis AUG-CC-PVTZ/MP2FIT   loaded. Number of functions:     516

 Screening thresholds:   THRAO=  1.00D-10  THRMO=  1.00D-09  THRPROD=  1.00D-09
                         THRSW=  1.00D-05  THROV=  1.00D-12  THRF12=   1.00D-08

 CPU time for 3-index integral evaluation         1.81 sec
 CPU time for first  half transformation          0.22 sec (10925.6 MFLOP/sec)
 CPU time for second half transformation          0.02 sec ( 4978.1 MFLOP/sec)
 CPU time for sorting                             0.12 sec
 CPU time for fitting                             0.05 sec (27861.0 MFLOP/sec)
 CPU time for tilde quantities                    0.07 sec (26412.6 MFLOP/sec)
 CPU time for assembly                            0.76 sec (30706.0 MFLOP/sec)
 CPU time for tranop_f12                          0.89 sec (33687.0 MFLOP/sec)
 CPU time for f12 integrals (total)               5.95 sec
 F12-matrices built in  3 passes.
 F12-matrices built in  3 passes.
 F12-matrices built in  3 passes.
 F12-matrices built in  3 passes.
 FC-matrix built in  3 passes.
 CPU time for f12 matrices (total)                0.49 sec

 Diagonal F12 approximation with fixed coefficients:  TSING= 0.500,  TTRIP= 0.250 (scaled by -1/beta)

 DF-MP2-F12 energy corrections:
 ------------------------------
 Approx.                                    Singlet             Triplet             Total
 DF-MP2-F12/3*C(DX,FIX)                -0.097448580422     -0.016932363885     -0.114380944307
 DF-MP2-F12/3*C(FIX)                   -0.079867355690     -0.013395308748     -0.093262664437
 DF-MP2-F12/3C(FIX)                    -0.080228331527     -0.013418366609     -0.093646698136

 DF-MP2-F12 correlation energies:
 --------------------------------
 Approx.                                    Singlet             Triplet             Ecorr            Total Energy
 DF-MP2                                -0.537771725948     -0.343107786569     -0.880879512517   -264.666199307366
 DF-MP2-F12/3*C(DX,FIX)                -0.635220306370     -0.360040150454     -0.995260456824   -264.780580251673
 DF-MP2-F12/3*C(FIX)                   -0.617639081638     -0.356503095317     -0.974142176955   -264.759461971804
 DF-MP2-F12/3C(FIX)                    -0.618000057476     -0.356526153177     -0.974526210653   -264.759846005502

 SCS-DF-MP2 energies (F_SING= 1.20000  F_TRIP= 0.62222  F_PARALLEL= 0.33333):
 ----------------------------------------------------------------------------
 SCS-DF-MP2                            -0.858815360559   -264.644135155408
 SCS-DF-MP2-F12/3*C(DX,FIX)            -0.986289350149   -264.771609144998
 SCS-DF-MP2-F12/3*C(FIX)               -0.962991046163   -264.748310841012
 SCS-DF-MP2-F12/3C(FIX)                -0.963438564281   -264.748758359131

 Symmetry restored.
 Symmetry transformation completed.

 Number of N-1 electron functions:              12
 Number of N-2 electron functions:              78
 Number of singly external CSFs:               750
 Number of doubly external CSFs:            844332
 Total number of CSFs:                      845083

 Pair and operator lists are different

 Length of J-op  integral file:             462.28 MB
 Length of K-op  integral file:             502.25 MB
 Length of 3-ext integral record:             0.00 MB

 Memory could be reduced to 38.71 Mwords without degradation in triples

 Integral transformation finished. Total CPU:   1.34 sec, npass=  1  Memory used:   7.09 MW

 Reference energy:                   -263.78531979

 Adding F12 terms to K(Cij), methodcc=6,  factor=1.0

 ITER.      SQ.NORM     CORR.ENERGY   TOTAL ENERGY   ENERGY CHANGE        DEN1      VAR(S)    VAR(P)  DIIS     TIME
   1      1.20220175    -0.86281342  -264.64813321     0.01808257     0.04673475  0.72D-02  0.56D-02  1  1    10.02
   2      1.21652416    -0.85858178  -264.64390157     0.00423164    -0.02016476  0.86D-04  0.59D-03  2  2    10.88
   3      1.22188925    -0.85867796  -264.64399776    -0.00009618    -0.00236547  0.13D-03  0.32D-04  3  3    11.75
   4      1.22469344    -0.85854983  -264.64386963     0.00012813    -0.00141220  0.76D-05  0.41D-05  4  4    12.66
   5      1.22572469    -0.85851208  -264.64383187     0.00003776    -0.00036680  0.56D-06  0.29D-06  5  5    13.53
   6      1.22588708    -0.85848519  -264.64380498     0.00002689    -0.00000807  0.40D-07  0.24D-07  6  6    14.41
   7      1.22591646    -0.85848276  -264.64380256     0.00000243    -0.00000623  0.25D-08  0.40D-08  6  4    15.30
   8      1.22591676    -0.85848228  -264.64380207     0.00000049     0.00000195  0.39D-09  0.27D-09  6  1    16.18
   9      1.22591737    -0.85848234  -264.64380214    -0.00000007     0.00000056  0.26D-10  0.21D-10  6  2    17.07

 Norm of t1 vector:      0.10600497      S-energy:    -0.00000002      T1 diagnostic:  0.01530050
                                                                       D1 diagnostic:  0.04495906

 Adding energy correction from Wij-K(Fij), methodcc=6  factor=1.0
 
  CCSD correlation energy              -0.858482344047
  MP2-F12 correction (uncoupled)       -0.092489626014
  C*T doubles correction               -0.001475431979
  f12b correction                       0.015408211747


 Total CPU time for triples:     25.72 sec


 RESULTS
 =======

  Reference energy                   -263.769399170396
  F12 singles correction               -0.015920624453

 F12 singles corrections added to reference energy

  New reference energy               -263.785319794849

  F12a singlet correction              -0.080427956263
  F12a triplet correction              -0.013537101729
  F12a total correction                -0.093965057993

 F12a corrections for ansatz F12/3C(FIX) added to CCSD energy
 
  CCSD-F12a singlet pair energy        -0.641935283701
  CCSD-F12a triplet pair energy        -0.310512095300
  CCSD-F12a correlation energy         -0.952447402040

  Triples (T) contribution             -0.037653826244
  Total correlation energy             -0.990101228284

  CCSD-F12a total energy             -264.737767196889
  CCSD[T]-F12a energy                -264.777967458115
  CCSD-T-F12a energy                 -264.774482536674
 !CCSD(T)-F12a total energy          -264.775421023132

 F12b corrections for ansatz F12/3C(FIX) added to CCSD(T)-F12a energy

  CCSD-F12b singlet pair energy        -0.627750406104
  CCSD-F12b triplet pair energy        -0.309288761150
  CCSD-F12b correlation energy         -0.937039190293

  Triples (T) contribution             -0.037653826244
  Total correlation energy             -0.974693016537

  CCSD-F12b total energy             -264.722358985142
  CCSD[T]-F12b energy                -264.762559246368
  CCSD-T-F12b energy                 -264.759074324928
 !CCSD(T)-F12b total energy          -264.760012811386

 Timing summary (sec):

 STEP                 CPU(USER)    SYS     CPU(TOT)    WALL
 Transformation          1.34      0.21      1.55      1.56
 CCSD iterations         7.86      0.58      8.44      8.42
 Triples                25.72      0.71     26.43     26.43
 MP2-F12                 7.88      1.06      8.94      8.95
 F12b energy             0.52      0.02      0.54      0.53

 Program statistics:

 Available memory in ccsd:                99998934
 Min. memory needed in ccsd:               2252999
 Max. memory used in ccsd:                 3011949
 Max. memory used in cckext:               2777209 (10 integral passes)



 **********************************************************************************************************************************
 DATASETS  * FILE   NREC   LENGTH (MB)   RECORD NAMES
              1      20      137.17       500      610      700      900      950      970     1000      129      960     1100   
                                          VAR    BASINP    GEOM    SYMINP    ZMAT    AOBASIS   BASIS     P2S    ABASIS      S 
                                         1400     1410     1200     1210     1080     1600     1650     1700      960(1)  1380   
                                           T        V       H0       H01     AOSYM     SMH    MOLCAS    OPER    ABASIS    JKOP   

              2       5        0.98       700     1000     2100     7360     7350   
                                         GEOM     BASIS     RHF    F12ABS    EF12   

 PROGRAMS   *        TOTAL   CCSD(T)        HF       INT
 CPU TIMES  *        47.97     43.38      0.97      3.53
 REAL TIME  *        51.16 SEC
 DISK USED  *       829.25 MB      
 SF USED    *         1.34 GB      
 GA USED    *         2.40 MB       (max)       0.00 MB       (current)
 **********************************************************************************************************************************

     CCSD(T)-F12        HF-SCF  
   -264.76001281   -263.76939917
 **********************************************************************************************************************************
 Variable memory released
