
 Primary working directories    : /scratch/kee
 Secondary working directories  : /scratch/kee
 Wavefunction directory         : /home/kee/wfu/
 Main file repository           : /scratch/kee/

 ARCHNAME  : Linux/x86_64
 FC        : /opt/intel/composer_xe_2015.0.090/bin/intel64/ifort
 FCVERSION : 15.0.0
 BLASLIB   : -L/opt/intel/mkl/lib/intel64 -lmkl_intel_ilp64 -lmkl_sequential -lmkl_core
 id        : emory

 Nodes     nprocs
 node24       3
 Number of processes for MPI-2 version of Molpro:   nprocs(total)=    4   nprocs(compute)=    3   nprocs(helper)=    1
 ga_uses_ma=false, calling ma_init with nominal heap.
 GA-space will be limited to   8.0 MW (determined by -G option)

 Using customized tuning parameters: mindgm=7; mindgv=32; mindgc=1; mindgr=1; noblas=0; mincuda=1000; minvec=7
 default implementation of scratch files=sf  

 ***,co2h2o
 memory,100,m
 basis avtz
 geomtype = xyz
 geometry = {
 6
       0.00000000
 O     0.00032100    1.15989800    0.00000000
 O     0.00041400   -1.15989400    0.00000000
 O     3.44841872    2.51961610    0.90378472
 H     4.23997324    2.82857175    0.46143608
 H     3.76240453    2.04098835    1.67190695
 C     0.01953800    0.00000300    0.00000000
 }
 hf
 ccsd(t)-f12
 ---

 Variables initialized (665), CPU time= 0.01 sec
 Commands  initialized (462), CPU time= 0.00 sec, 486 directives.
 Default parameters read. Elapsed time= 0.03 sec

 Checking input...
 Passed
1


                                         ***  PROGRAM SYSTEM MOLPRO  ***
                         Copyright, University College Cardiff Consultants Limited, 2008

                                    Version 2010.1 linked 9 Dec 2014 15:06:28 


 **********************************************************************************************************************************
 LABEL *   co2h2o                                                                        
 Linux-2.6.32-504.el6.x86_64/node24(x86_64) 64 bit mpp version                           DATE: 15-Dec-16          TIME: 00:40:31  
 **********************************************************************************************************************************

 Patch level:      19
 **********************************************************************************************************************************

 Variable memory set to  100000000 words,  buffer space   230000 words

 SETTING BASIS          =    AVTZ
 SETTING GEOMTYPE       =    XYZ

Geometry recognized as XYZ



 Recomputing integrals since basis changed


 Using spherical harmonics

 Library entry O      S aug-cc-pVTZ          selected for orbital group  1
 Library entry O      P aug-cc-pVTZ          selected for orbital group  1
 Library entry O      D aug-cc-pVTZ          selected for orbital group  1
 Library entry O      F aug-cc-pVTZ          selected for orbital group  1
 Library entry H      S aug-cc-pVTZ          selected for orbital group  2
 Library entry H      P aug-cc-pVTZ          selected for orbital group  2
 Library entry H      D aug-cc-pVTZ          selected for orbital group  2
 Library entry C      S aug-cc-pVTZ          selected for orbital group  3
 Library entry C      P aug-cc-pVTZ          selected for orbital group  3
 Library entry C      D aug-cc-pVTZ          selected for orbital group  3
 Library entry C      F aug-cc-pVTZ          selected for orbital group  3

1PROGRAM * SEWARD (Integral evaluation for generally contracted gaussian basis sets)     Author: Roland Lindh, 1990

 Geometry written to block  1 of record 700


 Point group  C1  



 ATOMIC COORDINATES

 NR  ATOM    CHARGE       X              Y              Z

   1  O       8.00    0.000606602    2.191889560    0.000000000
   2  O       8.00    0.000782347   -2.191882001    0.000000000
   3  O       8.00    6.516566967    4.761384385    1.707905603
   4  H       1.00    8.012388228    5.345225951    0.871987818
   5  H       1.00    7.109914157    3.856909019    3.159446253
   6  C       6.00    0.036921469    0.000005669    0.000000000

 Bond lengths in Bohr (Angstrom)

 1-6  2.192184701  2-6  2.192185575  3-4  1.810279194  3-5  1.810278110
     (1.160054182)     (1.160054644)     (0.957958491)     (0.957957918)

 Bond angles

  1-6-2  178.10622893   4-3-5  105.10354935

 NUCLEAR CHARGE:                   32
 NUMBER OF PRIMITIVE AOS:         322
 NUMBER OF SYMMETRY AOS:          282
 NUMBER OF CONTRACTIONS:          230   ( 230A   )
 NUMBER OF CORE ORBITALS:           4   (   4A   )
 NUMBER OF VALENCE ORBITALS:       18   (  18A   )


 NUCLEAR REPULSION ENERGY   93.68736904


 Eigenvalues of metric

         1 0.329E-03 0.361E-03 0.373E-03 0.378E-03 0.885E-03 0.898E-03 0.159E-02 0.164E-02


 Contracted 2-electron integrals neglected if value below      1.0D-11
 AO integral compression algorithm  1   Integral accuracy      1.0D-11

     990.380 MB (compressed) written to integral file ( 30.2%)

     Node minimum: 318.243 MB, node maximum: 336.855 MB


 NUMBER OF SORTED TWO-ELECTRON INTEGRALS:  117629820.     BUFFER LENGTH:  32768
 NUMBER OF SEGMENTS:   8  SEGMENT LENGTH:   15997437      RECORD LENGTH: 524288

 Memory used in sort:      16.55 MW

 SORT1 READ   410461585. AND WROTE    79653083. INTEGRALS IN    231 RECORDS. CPU TIME:     4.76 SEC, REAL TIME:     5.52 SEC
 SORT2 READ   238227855. AND WROTE   352862895. INTEGRALS IN   3642 RECORDS. CPU TIME:     1.56 SEC, REAL TIME:     2.15 SEC

 Node minimum:   117612110.  Node maximum:   117629820. integrals

 OPERATOR DM      FOR CENTER  0  COORDINATES:    0.000000    0.000000    0.000000


 **********************************************************************************************************************************
 DATASETS  * FILE   NREC   LENGTH (MB)   RECORD NAMES
              1      18        4.62       500      610      700      900      950      970     1000      129      960     1100   
                                          VAR    BASINP    GEOM    SYMINP    ZMAT    AOBASIS   BASIS     P2S    ABASIS      S 
                                         1400     1410     1200     1210     1080     1600     1650     1700   
                                           T        V       H0       H01     AOSYM     SMH    MOLCAS    OPER   

 PROGRAMS   *        TOTAL       INT
 CPU TIMES  *        10.85     10.78
 REAL TIME  *        12.44 SEC
 DISK USED  *         3.80 GB      
 GA USED    *         0.00 MB       (max)       0.00 MB       (current)
 **********************************************************************************************************************************

1PROGRAM * RHF-SCF (CLOSED SHELL)       Authors: W. Meyer, H.-J. Werner


 NUMBER OF ELECTRONS:      16+   16-    SPACE SYMMETRY=1    SPIN SYMMETRY=Singlet 
 CONVERGENCE THRESHOLDS:    1.00E-05 (Density)    1.00E-07 (Energy)
 MAX. NUMBER OF ITERATIONS:       60
 INTERPOLATION TYPE:            DIIS
 INTERPOLATION STEPS:              2 (START)      1 (STEP)
 LEVEL SHIFTS:                  0.00 (CLOSED)  0.00 (OPEN) 



 Orbital guess generated from atomic densities. Full valence occupancy:   22

 Molecular orbital dump at record        2100.2

 ITERATION    DDIFF          GRAD             ENERGY        2-EL.EN.            DIPOLE MOMENTS         DIIS
    1      0.000D+00      0.000D+00      -263.66041989    383.337463    1.12585   -0.16365    0.31507    0
    2      0.000D+00      0.469D-02      -263.72573005    378.583157    0.66522   -0.01624    0.18707    1
    3      0.751D-02      0.318D-02      -263.76904532    381.187669    0.78234   -0.07166    0.21744    2
    4      0.309D-02      0.298D-03      -263.76953485    380.974437    0.78479   -0.06211    0.21843    3
    5      0.358D-03      0.882D-04      -263.76959240    380.977140    0.78015   -0.06811    0.21697    4
    6      0.135D-03      0.367D-04      -263.76959996    380.990336    0.78060   -0.06408    0.21713    5
    7      0.450D-04      0.996D-05      -263.76960077    380.983558    0.78030   -0.06566    0.21704    6
    8      0.156D-04      0.342D-05      -263.76960085    380.983141    0.78022   -0.06494    0.21702    7
    9      0.456D-05      0.175D-05      -263.76960086    380.983963    0.78024   -0.06526    0.21702    0

 Final occupancy:  16

 !RHF STATE 1.1 Energy               -263.769600860794
 Nuclear energy                        93.68736904
 One-electron energy                 -547.94895155
 Two-electron energy                  190.49198166
 Virial quotient                       -1.00173136
 !RHF STATE 1.1 Dipole moment           0.78024385    -0.06525984     0.21702335
 Dipole moment /Debye                   1.98305215    -0.16586311     0.55158221

 Orbital energies:

         1.1          2.1          3.1          4.1          5.1          6.1          7.1          8.1          9.1         10.1
    -20.644566   -20.643021   -20.568167   -11.451798    -1.523234    -1.470021    -1.353966    -0.791942    -0.734688    -0.719782

        11.1         12.1         13.1         14.1         15.1         16.1         17.1         18.1
     -0.707156    -0.706925    -0.584584    -0.535834    -0.535559    -0.511252     0.027373     0.046031


 **********************************************************************************************************************************
 DATASETS  * FILE   NREC   LENGTH (MB)   RECORD NAMES
              1      18        4.62       500      610      700      900      950      970     1000      129      960     1100   
                                          VAR    BASINP    GEOM    SYMINP    ZMAT    AOBASIS   BASIS     P2S    ABASIS      S 
                                         1400     1410     1200     1210     1080     1600     1650     1700   
                                           T        V       H0       H01     AOSYM     SMH    MOLCAS    OPER   

              2       3        1.44       700     1000     2100   
                                         GEOM     BASIS     RHF  

 PROGRAMS   *        TOTAL        HF       INT
 CPU TIMES  *        22.13     11.28     10.78
 REAL TIME  *        24.14 SEC
 DISK USED  *         3.83 GB      
 SF USED    *         0.21 MB      
 GA USED    *         0.00 MB       (max)       0.00 MB       (current)
 **********************************************************************************************************************************


1PROGRAM * CCSD (Closed-shell coupled cluster)     Authors: C. Hampel, H.-J. Werner, 1991, M. Deegan, P.J. Knowles, 1992

                                  CCSD-F12 implementation by  H.-J. Werner, 2007

                   Density fitting integral evaluation by F.R. Manby, 2003,2007, G. Knizia, 2010

 Basis set CC-PVTZ/JKFIT generated.      Number of basis functions:   376 
 Basis set AUG-CC-PVTZ/MP2FIT generated. Number of basis functions:   516 

 Convergence thresholds:  THRVAR = 1.00D-08  THRDEN = 1.00D-06

 CCSD(T)     terms to be evaluated (factor= 1.000)


 Number of core orbitals:           4 (   4 )
 Number of closed-shell orbitals:  12 (  12 )
 Number of external orbitals:     214 ( 214 )

 Molecular orbitals read from record     2100.2  Type=RHF/CANONICAL (state 1.1)

 MP2-F12 correlation treatment (H.-J. Werner, 2006)
 --------------------------------------------------

 Using MP2-F12 with ansatz 3C(FIX)

 Using projected zeroth-order Hamiltonian (+Z)

 FOCKRIB=T FOCKRIC=T FOCKRIP=T CABSP=T CABSA=T CABSK=T CABSF=T GBC=F EBC=F DMAT=T NOFIK=T NOPAO=1 SOLVE=-1  USEPAO=0
 EXCH_A= T EXCH_B= F EXCH_C= F EXCH_P= F
 
 Geminal basis:    OPTFULL  GEM_TYPE=SLATER  BETA=1.0  NGEM=6

 Optimizing Gaussian exponents for each gem_beta

 Geminal optimization for beta= 1.0000
 Weight function:   m=0, omega= 1.4646

 Augmented Hessian optimization of geminal fit. Trust ratio= 0.40000
 Convergence reached after   2 iterations. Final gradient= 8.24D-16, Step= 4.32D-06, Delta= 1.28D-09
 
 Alpha:                 0.19532     0.81920     2.85917     9.50073    35.69989   197.79328
 Coeff:                 0.27070     0.30552     0.18297     0.10986     0.06810     0.04224
 

 All pairs explicitly correlated. Number of r12-pairs:           78
 
 AO(A)-basis ORBITAL           loaded. Number of functions:     230
 RI(R)-basis CC-PVTZ/JKFIT     loaded. Number of functions:     376
 DF-basis CC-PVTZ/JKFIT        loaded. Number of functions:     376

 Screening thresholds:   THRAO=  1.00D-10  THRMO=  1.00D-09  THRPROD=  1.00D-09
                         THRSW=  1.00D-05  THROV=  1.00D-12  THRF12=   1.00D-08

 CPU time for Fock operators                      0.90 sec
 
 Construction of ABS:
 Smallest eigenvalue of S          2.56E-04  (threshold= 1.00E-08)
 Ratio eigmin/eigmax               1.83E-06  (threshold= 1.00E-09)
 Smallest eigenvalue of S kept     2.56E-04  (threshold= 2.56E-04, 0 functions deleted, 376 kept)
 
 Construction of CABS:
 Smallest eigenvalue of S          2.26E-08  (threshold= 1.00E-08)
 Ratio eigmin/eigmax               2.26E-08  (threshold= 1.00E-09)
 Smallest eigenvalue of S kept     2.26E-08  (threshold= 2.26E-08, 0 functions deleted, 376 kept)
 
 CPU time for CABS singles                        0.15 sec

 CABS-singles contribution of  -0.01596319 patched into reference energy.
 New reference energy        -263.78556405
 
 AO(A)-basis ORBITAL           loaded. Number of functions:     230
 RI(R)-basis CC-PVTZ/JKFIT     loaded. Number of functions:     376
 DF-basis AUG-CC-PVTZ/MP2FIT   loaded. Number of functions:     516

 Screening thresholds:   THRAO=  1.00D-10  THRMO=  1.00D-09  THRPROD=  1.00D-09
                         THRSW=  1.00D-05  THROV=  1.00D-12  THRF12=   1.00D-08

 CPU time for 3-index integral evaluation         2.54 sec
 CPU time for first  half transformation          0.26 sec (11107.3 MFLOP/sec)
 CPU time for second half transformation          0.01 sec (10828.0 MFLOP/sec)
 CPU time for sorting                             0.17 sec
 CPU time for fitting                             0.04 sec (34826.3 MFLOP/sec)
 CPU time for tilde quantities                    0.06 sec (30814.7 MFLOP/sec)
 CPU time for assembly                            0.76 sec (31473.9 MFLOP/sec)
 CPU time for tranop_f12                          0.95 sec (31432.2 MFLOP/sec)
 CPU time for f12 integrals (total)               6.81 sec
 F12-matrices built in  3 passes.
 F12-matrices built in  3 passes.
 F12-matrices built in  3 passes.
 F12-matrices built in  3 passes.
 FC-matrix built in  3 passes.
 CPU time for f12 matrices (total)                0.47 sec

 Diagonal F12 approximation with fixed coefficients:  TSING= 0.500,  TTRIP= 0.250 (scaled by -1/beta)

 DF-MP2-F12 energy corrections:
 ------------------------------
 Approx.                                    Singlet             Triplet             Total
 DF-MP2-F12/3*C(DX,FIX)                -0.097464280275     -0.016950893080     -0.114415173355
 DF-MP2-F12/3*C(FIX)                   -0.079866884996     -0.013411892004     -0.093278777001
 DF-MP2-F12/3C(FIX)                    -0.080228650365     -0.013437297304     -0.093665947669

 DF-MP2-F12 correlation energies:
 --------------------------------
 Approx.                                    Singlet             Triplet             Ecorr            Total Energy
 DF-MP2                                -0.537531413931     -0.343096894910     -0.880628308841   -264.666192362184
 DF-MP2-F12/3*C(DX,FIX)                -0.634995694206     -0.360047787990     -0.995043482196   -264.780607535540
 DF-MP2-F12/3*C(FIX)                   -0.617398298927     -0.356508786915     -0.973907085842   -264.759471139185
 DF-MP2-F12/3C(FIX)                    -0.617760064295     -0.356534192215     -0.974294256510   -264.759858309853

 SCS-DF-MP2 energies (F_SING= 1.20000  F_TRIP= 0.62222  F_PARALLEL= 0.33333):
 ----------------------------------------------------------------------------
 SCS-DF-MP2                            -0.858520209105   -264.644084262449
 SCS-DF-MP2-F12/3*C(DX,FIX)            -0.986024567797   -264.771588621140
 SCS-DF-MP2-F12/3*C(FIX)               -0.962705648348   -264.748269701692
 SCS-DF-MP2-F12/3C(FIX)                -0.963155574533   -264.748719627876
 Symmetry transformation completed.

 Number of N-1 electron functions:              12
 Number of N-2 electron functions:              78
 Number of singly external CSFs:              2568
 Number of doubly external CSFs:           3298596
 Total number of CSFs:                     3301165

 Pair and operator lists are different

 Length of J-op  integral file:             474.22 MB
 Length of K-op  integral file:             572.29 MB
 Length of 3-ext integral record:             0.00 MB

 For full I/O caching in triples, increase memory by 50.81 Mwords to 151.09 Mwords.

 Integral transformation finished. Total CPU:  12.95 sec, npass=  1  Memory used:  87.46 MW

 Reference energy:                   -263.78556405

 Adding F12 terms to K(Cij), methodcc=6,  factor=1.0

 ITER.      SQ.NORM     CORR.ENERGY   TOTAL ENERGY   ENERGY CHANGE        DEN1      VAR(S)    VAR(P)  DIIS     TIME
   1      1.20191846    -0.86264693  -264.64821098     0.01799683     0.04649723  0.71D-02  0.55D-02  1  1    30.50
   2      1.21617230    -0.85845288  -264.64401693     0.00419405    -0.02008106  0.85D-04  0.58D-03  2  2    39.57
   3      1.22148988    -0.85854718  -264.64411123    -0.00009430    -0.00235100  0.13D-03  0.32D-04  3  3    48.62
   4      1.22426593    -0.85842124  -264.64398529     0.00012594    -0.00140249  0.74D-05  0.41D-05  4  4    57.67
   5      1.22528187    -0.85838411  -264.64394816     0.00003713    -0.00036207  0.55D-06  0.28D-06  5  5    66.72
   6      1.22544191    -0.85835763  -264.64392168     0.00002648    -0.00000787  0.40D-07  0.24D-07  6  6    75.79
   7      1.22547097    -0.85835524  -264.64391929     0.00000239    -0.00000617  0.26D-08  0.40D-08  6  4    84.54
   8      1.22547137    -0.85835475  -264.64391880     0.00000049     0.00000189  0.40D-09  0.27D-09  6  1    93.62
   9      1.22547197    -0.85835482  -264.64391887    -0.00000007     0.00000057  0.28D-10  0.22D-10  6  2   102.71

 Norm of t1 vector:      0.10548412      S-energy:     0.00000156      T1 diagnostic:  0.01522532
                                                                       D1 diagnostic:  0.04468764

 Adding energy correction from Wij-K(Fij), methodcc=6  factor=1.0
 
  CCSD correlation energy              -0.858354820587
  MP2-F12 correction (uncoupled)       -0.092512961828
  C*T doubles correction               -0.001472881896
  f12b correction                       0.015402804375


 Total CPU time for triples:    203.31 sec


 RESULTS
 =======

  Reference energy                   -263.769600860794
  F12 singles correction               -0.015963192549

 F12 singles corrections added to reference energy

  New reference energy               -263.785564053343

  F12a singlet correction              -0.080430639871
  F12a triplet correction              -0.013555203853
  F12a total correction                -0.093985843724

 F12a corrections for ansatz F12/3C(FIX) added to CCSD energy
 
  CCSD-F12a singlet pair energy        -0.641668599959
  CCSD-F12a triplet pair energy        -0.310673620131
  CCSD-F12a correlation energy         -0.952340664310

  Triples (T) contribution             -0.037592313083
  Total correlation energy             -0.989932977393

  CCSD-F12a total energy             -264.737904717654
  CCSD[T]-F12a energy                -264.778020968938
  CCSD-T-F12a energy                 -264.774565264204
 !CCSD(T)-F12a total energy          -264.775497030736

 F12b corrections for ansatz F12/3C(FIX) added to CCSD(T)-F12a energy

  CCSD-F12b singlet pair energy        -0.627490379846
  CCSD-F12b triplet pair energy        -0.309449035869
  CCSD-F12b correlation energy         -0.936937859935

  Triples (T) contribution             -0.037592313083
  Total correlation energy             -0.974530173018

  CCSD-F12b total energy             -264.722501913279
  CCSD[T]-F12b energy                -264.762618164563
  CCSD-T-F12b energy                 -264.759162459829
 !CCSD(T)-F12b total energy          -264.760094226361

 Timing summary (sec):

 STEP                 CPU(USER)    SYS     CPU(TOT)    WALL
 Transformation         13.05      1.04     14.09     14.24
 CCSD iterations        80.86      2.99     83.85     83.87
 Triples               203.31      2.32    205.63    205.55
 MP2-F12                 8.83      1.14      9.97      9.98
 F12b energy             6.15      0.08      6.23      6.23

 Program statistics:

 Available memory in ccsd:                99998934
 Min. memory needed in ccsd:               8644845
 Max. memory used in ccsd:                11598633
 Max. memory used in cckext:               8768967 (10 integral passes)



 **********************************************************************************************************************************
 DATASETS  * FILE   NREC   LENGTH (MB)   RECORD NAMES
              1      20      527.84       500      610      700      900      950      970     1000      129      960     1100   
                                          VAR    BASINP    GEOM    SYMINP    ZMAT    AOBASIS   BASIS     P2S    ABASIS      S 
                                         1400     1410     1200     1210     1080     1600     1650     1700      960(1)  1380   
                                           T        V       H0       H01     AOSYM     SMH    MOLCAS    OPER    ABASIS    JKOP   

              2       5        2.50       700     1000     2100     7360     7350   
                                         GEOM     BASIS     RHF    F12ABS    EF12   

 PROGRAMS   *        TOTAL   CCSD(T)        HF       INT
 CPU TIMES  *       334.54    312.41     11.28     10.78
 REAL TIME  *       344.39 SEC
 DISK USED  *         4.70 GB      
 SF USED    *         1.91 GB      
 GA USED    *         2.40 MB       (max)       0.00 MB       (current)
 **********************************************************************************************************************************

     CCSD(T)-F12        HF-SCF  
   -264.76009423   -263.76960086
 **********************************************************************************************************************************
 Variable memory released
