
 Primary working directories    : /scratch/kee
 Secondary working directories  : /scratch/kee
 Wavefunction directory         : /home/kee/wfu/
 Main file repository           : /scratch/kee/

 ARCHNAME  : Linux/x86_64
 FC        : /opt/intel/composer_xe_2015.0.090/bin/intel64/ifort
 FCVERSION : 15.0.0
 BLASLIB   : -L/opt/intel/mkl/lib/intel64 -lmkl_intel_ilp64 -lmkl_sequential -lmkl_core
 id        : emory

 Nodes     nprocs
 node24       3
 Number of processes for MPI-2 version of Molpro:   nprocs(total)=    4   nprocs(compute)=    3   nprocs(helper)=    1
 ga_uses_ma=false, calling ma_init with nominal heap.
 GA-space will be limited to   8.0 MW (determined by -G option)

 Using customized tuning parameters: mindgm=7; mindgv=32; mindgc=1; mindgr=1; noblas=0; mincuda=1000; minvec=7
 default implementation of scratch files=sf  

 ***,co2h2o
 memory,100,m
 basis avtz
 geomtype = xyz
 geometry = {
 6
       0.00000000
 O     0.00032100    1.15989800    0.00000000
 O     0.00041400   -1.15989400    0.00000000
 O     3.68489325    2.69338252    0.96611470
 H     4.47644777    3.00233817    0.52376606
 H     3.99887906    2.21475478    1.73423693
 C     0.01953800    0.00000300    0.00000000
 }
 hf
 ccsd(t)-f12
 ---

 Variables initialized (665), CPU time= 0.00 sec
 Commands  initialized (462), CPU time= 0.01 sec, 486 directives.
 Default parameters read. Elapsed time= 0.03 sec

 Checking input...
 Passed
1


                                         ***  PROGRAM SYSTEM MOLPRO  ***
                         Copyright, University College Cardiff Consultants Limited, 2008

                                    Version 2010.1 linked 9 Dec 2014 15:06:28 


 **********************************************************************************************************************************
 LABEL *   co2h2o                                                                        
 Linux-2.6.32-504.el6.x86_64/node24(x86_64) 64 bit mpp version                           DATE: 15-Dec-16          TIME: 01:15:16  
 **********************************************************************************************************************************

 Patch level:      19
 **********************************************************************************************************************************

 Variable memory set to  100000000 words,  buffer space   230000 words

 SETTING BASIS          =    AVTZ
 SETTING GEOMTYPE       =    XYZ

Geometry recognized as XYZ



 Recomputing integrals since basis changed


 Using spherical harmonics

 Library entry O      S aug-cc-pVTZ          selected for orbital group  1
 Library entry O      P aug-cc-pVTZ          selected for orbital group  1
 Library entry O      D aug-cc-pVTZ          selected for orbital group  1
 Library entry O      F aug-cc-pVTZ          selected for orbital group  1
 Library entry H      S aug-cc-pVTZ          selected for orbital group  2
 Library entry H      P aug-cc-pVTZ          selected for orbital group  2
 Library entry H      D aug-cc-pVTZ          selected for orbital group  2
 Library entry C      S aug-cc-pVTZ          selected for orbital group  3
 Library entry C      P aug-cc-pVTZ          selected for orbital group  3
 Library entry C      D aug-cc-pVTZ          selected for orbital group  3
 Library entry C      F aug-cc-pVTZ          selected for orbital group  3

1PROGRAM * SEWARD (Integral evaluation for generally contracted gaussian basis sets)     Author: Roland Lindh, 1990

 Geometry written to block  1 of record 700


 Point group  C1  



 ATOMIC COORDINATES

 NR  ATOM    CHARGE       X              Y              Z

   1  O       8.00    0.000606602    2.191889560    0.000000000
   2  O       8.00    0.000782347   -2.191882001    0.000000000
   3  O       8.00    6.963439066    5.089755330    1.825692195
   4  H       1.00    8.459260327    5.673596895    0.989774410
   5  H       1.00    7.556786256    4.185279982    3.277232845
   6  C       6.00    0.036921469    0.000005669    0.000000000

 Bond lengths in Bohr (Angstrom)

 1-6  2.192184701  2-6  2.192185575  3-4  1.810279194  3-5  1.810278101
     (1.160054182)     (1.160054644)     (0.957958491)     (0.957957913)

 Bond angles

  1-6-2  178.10622893   4-3-5  105.10354923

 NUCLEAR CHARGE:                   32
 NUMBER OF PRIMITIVE AOS:         322
 NUMBER OF SYMMETRY AOS:          282
 NUMBER OF CONTRACTIONS:          230   ( 230A   )
 NUMBER OF CORE ORBITALS:           4   (   4A   )
 NUMBER OF VALENCE ORBITALS:       18   (  18A   )


 NUCLEAR REPULSION ENERGY   92.04980447


 Eigenvalues of metric

         1 0.333E-03 0.361E-03 0.378E-03 0.384E-03 0.888E-03 0.905E-03 0.161E-02 0.166E-02


 Contracted 2-electron integrals neglected if value below      1.0D-11
 AO integral compression algorithm  1   Integral accuracy      1.0D-11

     924.320 MB (compressed) written to integral file ( 28.2%)

     Node minimum: 305.136 MB, node maximum: 311.165 MB


 NUMBER OF SORTED TWO-ELECTRON INTEGRALS:  117629820.     BUFFER LENGTH:  32768
 NUMBER OF SEGMENTS:   8  SEGMENT LENGTH:   15997437      RECORD LENGTH: 524288

 Memory used in sort:      16.55 MW

 SORT1 READ   409845109. AND WROTE    74416735. INTEGRALS IN    217 RECORDS. CPU TIME:     4.77 SEC, REAL TIME:     5.55 SEC
 SORT2 READ   222572182. AND WROTE   352862895. INTEGRALS IN   3492 RECORDS. CPU TIME:     1.55 SEC, REAL TIME:     2.11 SEC

 Node minimum:   117612110.  Node maximum:   117629820. integrals

 OPERATOR DM      FOR CENTER  0  COORDINATES:    0.000000    0.000000    0.000000


 **********************************************************************************************************************************
 DATASETS  * FILE   NREC   LENGTH (MB)   RECORD NAMES
              1      18        4.62       500      610      700      900      950      970     1000      129      960     1100   
                                          VAR    BASINP    GEOM    SYMINP    ZMAT    AOBASIS   BASIS     P2S    ABASIS      S 
                                         1400     1410     1200     1210     1080     1600     1650     1700   
                                           T        V       H0       H01     AOSYM     SMH    MOLCAS    OPER   

 PROGRAMS   *        TOTAL       INT
 CPU TIMES  *        10.60     10.54
 REAL TIME  *        12.36 SEC
 DISK USED  *         3.55 GB      
 GA USED    *         0.00 MB       (max)       0.00 MB       (current)
 **********************************************************************************************************************************

1PROGRAM * RHF-SCF (CLOSED SHELL)       Authors: W. Meyer, H.-J. Werner


 NUMBER OF ELECTRONS:      16+   16-    SPACE SYMMETRY=1    SPIN SYMMETRY=Singlet 
 CONVERGENCE THRESHOLDS:    1.00E-05 (Density)    1.00E-07 (Energy)
 MAX. NUMBER OF ITERATIONS:       60
 INTERPOLATION TYPE:            DIIS
 INTERPOLATION STEPS:              2 (START)      1 (STEP)
 LEVEL SHIFTS:                  0.00 (CLOSED)  0.00 (OPEN) 



 Orbital guess generated from atomic densities. Full valence occupancy:   22

 Molecular orbital dump at record        2100.2

 ITERATION    DDIFF          GRAD             ENERGY        2-EL.EN.            DIPOLE MOMENTS         DIIS
    1      0.000D+00      0.000D+00      -263.66063773    379.991718    1.12584   -0.16383    0.31506    0
    2      0.000D+00      0.469D-02      -263.72593009    375.269151    0.66111   -0.03073    0.18705    1
    3      0.750D-02      0.318D-02      -263.76913953    377.864782    0.77891   -0.07900    0.21741    2
    4      0.308D-02      0.297D-03      -263.76962872    377.651496    0.78149   -0.07122    0.21845    3
    5      0.357D-03      0.875D-04      -263.76968588    377.654446    0.77674   -0.07606    0.21698    4
    6      0.134D-03      0.360D-04      -263.76969322    377.667808    0.77725   -0.07269    0.21716    5
    7      0.445D-04      0.960D-05      -263.76969400    377.660655    0.77692   -0.07408    0.21706    6
    8      0.152D-04      0.319D-05      -263.76969407    377.660531    0.77685   -0.07339    0.21704    7
    9      0.440D-05      0.177D-05      -263.76969408    377.661264    0.77687   -0.07374    0.21705    0

 Final occupancy:  16

 !RHF STATE 1.1 Energy               -263.769694079437
 Nuclear energy                        92.04980447
 One-electron energy                 -544.65013075
 Two-electron energy                  188.83063221
 Virial quotient                       -1.00173381
 !RHF STATE 1.1 Dipole moment           0.77686990    -0.07373877     0.21704549
 Dipole moment /Debye                   1.97447699    -0.18741298     0.55163848

 Orbital energies:

         1.1          2.1          3.1          4.1          5.1          6.1          7.1          8.1          9.1         10.1
    -20.645635   -20.644340   -20.567939   -11.453009    -1.524413    -1.471225    -1.353711    -0.793120    -0.735898    -0.719516

        11.1         12.1         13.1         14.1         15.1         16.1         17.1         18.1
     -0.708305    -0.708121    -0.584355    -0.537014    -0.536816    -0.511016     0.027650     0.045962


 **********************************************************************************************************************************
 DATASETS  * FILE   NREC   LENGTH (MB)   RECORD NAMES
              1      18        4.62       500      610      700      900      950      970     1000      129      960     1100   
                                          VAR    BASINP    GEOM    SYMINP    ZMAT    AOBASIS   BASIS     P2S    ABASIS      S 
                                         1400     1410     1200     1210     1080     1600     1650     1700   
                                           T        V       H0       H01     AOSYM     SMH    MOLCAS    OPER   

              2       3        1.44       700     1000     2100   
                                         GEOM     BASIS     RHF  

 PROGRAMS   *        TOTAL        HF       INT
 CPU TIMES  *        21.60     11.00     10.54
 REAL TIME  *        23.80 SEC
 DISK USED  *         3.59 GB      
 SF USED    *         0.21 MB      
 GA USED    *         0.00 MB       (max)       0.00 MB       (current)
 **********************************************************************************************************************************


1PROGRAM * CCSD (Closed-shell coupled cluster)     Authors: C. Hampel, H.-J. Werner, 1991, M. Deegan, P.J. Knowles, 1992

                                  CCSD-F12 implementation by  H.-J. Werner, 2007

                   Density fitting integral evaluation by F.R. Manby, 2003,2007, G. Knizia, 2010

 Basis set CC-PVTZ/JKFIT generated.      Number of basis functions:   376 
 Basis set AUG-CC-PVTZ/MP2FIT generated. Number of basis functions:   516 

 Convergence thresholds:  THRVAR = 1.00D-08  THRDEN = 1.00D-06

 CCSD(T)     terms to be evaluated (factor= 1.000)


 Number of core orbitals:           4 (   4 )
 Number of closed-shell orbitals:  12 (  12 )
 Number of external orbitals:     214 ( 214 )

 Molecular orbitals read from record     2100.2  Type=RHF/CANONICAL (state 1.1)

 MP2-F12 correlation treatment (H.-J. Werner, 2006)
 --------------------------------------------------

 Using MP2-F12 with ansatz 3C(FIX)

 Using projected zeroth-order Hamiltonian (+Z)

 FOCKRIB=T FOCKRIC=T FOCKRIP=T CABSP=T CABSA=T CABSK=T CABSF=T GBC=F EBC=F DMAT=T NOFIK=T NOPAO=1 SOLVE=-1  USEPAO=0
 EXCH_A= T EXCH_B= F EXCH_C= F EXCH_P= F
 
 Geminal basis:    OPTFULL  GEM_TYPE=SLATER  BETA=1.0  NGEM=6

 Optimizing Gaussian exponents for each gem_beta

 Geminal optimization for beta= 1.0000
 Weight function:   m=0, omega= 1.4646

 Augmented Hessian optimization of geminal fit. Trust ratio= 0.40000
 Convergence reached after   2 iterations. Final gradient= 8.24D-16, Step= 4.32D-06, Delta= 1.28D-09
 
 Alpha:                 0.19532     0.81920     2.85917     9.50073    35.69989   197.79328
 Coeff:                 0.27070     0.30552     0.18297     0.10986     0.06810     0.04224
 

 All pairs explicitly correlated. Number of r12-pairs:           78
 
 AO(A)-basis ORBITAL           loaded. Number of functions:     230
 RI(R)-basis CC-PVTZ/JKFIT     loaded. Number of functions:     376
 DF-basis CC-PVTZ/JKFIT        loaded. Number of functions:     376

 Screening thresholds:   THRAO=  1.00D-10  THRMO=  1.00D-09  THRPROD=  1.00D-09
                         THRSW=  1.00D-05  THROV=  1.00D-12  THRF12=   1.00D-08

 CPU time for Fock operators                      0.96 sec
 
 Construction of ABS:
 Smallest eigenvalue of S          2.56E-04  (threshold= 1.00E-08)
 Ratio eigmin/eigmax               1.83E-06  (threshold= 1.00E-09)
 Smallest eigenvalue of S kept     2.56E-04  (threshold= 2.56E-04, 0 functions deleted, 376 kept)
 
 Construction of CABS:
 Smallest eigenvalue of S          2.26E-08  (threshold= 1.00E-08)
 Ratio eigmin/eigmax               2.26E-08  (threshold= 1.00E-09)
 Smallest eigenvalue of S kept     2.26E-08  (threshold= 2.26E-08, 0 functions deleted, 376 kept)
 
 CPU time for CABS singles                        0.16 sec

 CABS-singles contribution of  -0.01596240 patched into reference energy.
 New reference energy        -263.78565648
 
 AO(A)-basis ORBITAL           loaded. Number of functions:     230
 RI(R)-basis CC-PVTZ/JKFIT     loaded. Number of functions:     376
 DF-basis AUG-CC-PVTZ/MP2FIT   loaded. Number of functions:     516

 Screening thresholds:   THRAO=  1.00D-10  THRMO=  1.00D-09  THRPROD=  1.00D-09
                         THRSW=  1.00D-05  THROV=  1.00D-12  THRF12=   1.00D-08

 CPU time for 3-index integral evaluation         2.46 sec
 CPU time for first  half transformation          0.27 sec (10202.4 MFLOP/sec)
 CPU time for second half transformation          0.03 sec ( 3720.9 MFLOP/sec)
 CPU time for sorting                             0.17 sec
 CPU time for fitting                             0.06 sec (23217.5 MFLOP/sec)
 CPU time for tilde quantities                    0.05 sec (36977.6 MFLOP/sec)
 CPU time for assembly                            0.84 sec (27303.6 MFLOP/sec)
 CPU time for tranop_f12                          0.88 sec (33991.6 MFLOP/sec)
 CPU time for f12 integrals (total)               6.86 sec
 F12-matrices built in  3 passes.
 F12-matrices built in  3 passes.
 F12-matrices built in  3 passes.
 F12-matrices built in  3 passes.
 FC-matrix built in  3 passes.
 CPU time for f12 matrices (total)                0.48 sec

 Diagonal F12 approximation with fixed coefficients:  TSING= 0.500,  TTRIP= 0.250 (scaled by -1/beta)

 DF-MP2-F12 energy corrections:
 ------------------------------
 Approx.                                    Singlet             Triplet             Total
 DF-MP2-F12/3*C(DX,FIX)                -0.097474976357     -0.016949215902     -0.114424192259
 DF-MP2-F12/3*C(FIX)                   -0.079876859156     -0.013408318818     -0.093285177974
 DF-MP2-F12/3C(FIX)                    -0.080237161910     -0.013432722967     -0.093669884877

 DF-MP2-F12 correlation energies:
 --------------------------------
 Approx.                                    Singlet             Triplet             Ecorr            Total Energy
 DF-MP2                                -0.537473358461     -0.342990506623     -0.880463865084   -264.666120345799
 DF-MP2-F12/3*C(DX,FIX)                -0.634948334817     -0.359939722525     -0.994888057343   -264.780544538057
 DF-MP2-F12/3*C(FIX)                   -0.617350217617     -0.356398825441     -0.973749043058   -264.759405523773
 DF-MP2-F12/3C(FIX)                    -0.617710520371     -0.356423229591     -0.974133749961   -264.759790230676

 SCS-DF-MP2 energies (F_SING= 1.20000  F_TRIP= 0.62222  F_PARALLEL= 0.33333):
 ----------------------------------------------------------------------------
 SCS-DF-MP2                            -0.858384345385   -264.644040826100
 SCS-DF-MP2-F12/3*C(DX,FIX)            -0.985900495796   -264.771556976511
 SCS-DF-MP2-F12/3*C(FIX)               -0.962579530304   -264.748236011018
 SCS-DF-MP2-F12/3C(FIX)                -0.963027078412   -264.748683559127
 Symmetry transformation completed.

 Number of N-1 electron functions:              12
 Number of N-2 electron functions:              78
 Number of singly external CSFs:              2568
 Number of doubly external CSFs:           3298596
 Total number of CSFs:                     3301165

 Pair and operator lists are different

 Length of J-op  integral file:             474.22 MB
 Length of K-op  integral file:             572.29 MB
 Length of 3-ext integral record:             0.00 MB

 For full I/O caching in triples, increase memory by 50.81 Mwords to 151.09 Mwords.

 Integral transformation finished. Total CPU:  12.57 sec, npass=  1  Memory used:  87.46 MW

 Reference energy:                   -263.78565648

 Adding F12 terms to K(Cij), methodcc=6,  factor=1.0

 ITER.      SQ.NORM     CORR.ENERGY   TOTAL ENERGY   ENERGY CHANGE        DEN1      VAR(S)    VAR(P)  DIIS     TIME
   1      1.20187188    -0.86250203  -264.64815851     0.01797758     0.04646417  0.71D-02  0.55D-02  1  1    29.95
   2      1.21611684    -0.85831046  -264.64396695     0.00419157    -0.02007021  0.85D-04  0.58D-03  2  2    38.62
   3      1.22143238    -0.85840458  -264.64406106    -0.00009412    -0.00235141  0.13D-03  0.32D-04  3  3    47.14
   4      1.22420666    -0.85827891  -264.64393539     0.00012567    -0.00140189  0.74D-05  0.41D-05  4  4    55.66
   5      1.22522191    -0.85824181  -264.64389829     0.00003710    -0.00036192  0.55D-06  0.28D-06  5  5    64.33
   6      1.22538181    -0.85821534  -264.64387182     0.00002647    -0.00000788  0.39D-07  0.23D-07  6  6    73.04
   7      1.22541080    -0.85821296  -264.64386944     0.00000238    -0.00000616  0.26D-08  0.39D-08  6  4    81.57
   8      1.22541116    -0.85821247  -264.64386895     0.00000049     0.00000190  0.39D-09  0.27D-09  6  1    90.22
   9      1.22541176    -0.85821254  -264.64386902    -0.00000007     0.00000056  0.27D-10  0.22D-10  6  2    98.92

 Norm of t1 vector:      0.10544985      S-energy:     0.00000142      T1 diagnostic:  0.01522037
                                                                       D1 diagnostic:  0.04467055

 Adding energy correction from Wij-K(Fij), methodcc=6  factor=1.0
 
  CCSD correlation energy              -0.858212540157
  MP2-F12 correction (uncoupled)       -0.092518457200
  C*T doubles correction               -0.001472655218
  f12b correction                       0.015402501720


 Total CPU time for triples:    208.54 sec


 RESULTS
 =======

  Reference energy                   -263.769694079437
  F12 singles correction               -0.015962401278

 F12 singles corrections added to reference energy

  New reference energy               -263.785656480714

  F12a singlet correction              -0.080439853004
  F12a triplet correction              -0.013551259414
  F12a total correction                -0.093991112418

 F12a corrections for ansatz F12/3C(FIX) added to CCSD energy
 
  CCSD-F12a singlet pair energy        -0.641631901528
  CCSD-F12a triplet pair energy        -0.310573169417
  CCSD-F12a correlation energy         -0.952203652575

  Triples (T) contribution             -0.037565326770
  Total correlation energy             -0.989768979345

  CCSD-F12a total energy             -264.737860133290
  CCSD[T]-F12a energy                -264.777947247831
  CCSD-T-F12a energy                 -264.774494288114
 !CCSD(T)-F12a total energy          -264.775425460059

 F12b corrections for ansatz F12/3C(FIX) added to CCSD(T)-F12a energy

  CCSD-F12b singlet pair energy        -0.627453600154
  CCSD-F12b triplet pair energy        -0.309348969071
  CCSD-F12b correlation energy         -0.936801150855

  Triples (T) contribution             -0.037565326770
  Total correlation energy             -0.974366477625

  CCSD-F12b total energy             -264.722457631570
  CCSD[T]-F12b energy                -264.762544746112
  CCSD-T-F12b energy                 -264.759091786394
 !CCSD(T)-F12b total energy          -264.760022958339

 Timing summary (sec):

 STEP                 CPU(USER)    SYS     CPU(TOT)    WALL
 Transformation         12.68      1.07     13.75     13.75
 CCSD iterations        77.20      3.00     80.20     81.03
 Triples               208.54      2.99    211.53    211.44
 MP2-F12                 9.05      1.19     10.24     10.23
 F12b energy             5.87      0.09      5.96      5.95

 Program statistics:

 Available memory in ccsd:                99998934
 Min. memory needed in ccsd:               8644845
 Max. memory used in ccsd:                11598633
 Max. memory used in cckext:               8768967 (10 integral passes)



 **********************************************************************************************************************************
 DATASETS  * FILE   NREC   LENGTH (MB)   RECORD NAMES
              1      20      527.84       500      610      700      900      950      970     1000      129      960     1100   
                                          VAR    BASINP    GEOM    SYMINP    ZMAT    AOBASIS   BASIS     P2S    ABASIS      S 
                                         1400     1410     1200     1210     1080     1600     1650     1700      960(1)  1380   
                                           T        V       H0       H01     AOSYM     SMH    MOLCAS    OPER    ABASIS    JKOP   

              2       5        2.50       700     1000     2100     7360     7350   
                                         GEOM     BASIS     RHF    F12ABS    EF12   

 PROGRAMS   *        TOTAL   CCSD(T)        HF       INT
 CPU TIMES  *       335.26    313.65     11.00     10.54
 REAL TIME  *       346.56 SEC
 DISK USED  *         4.45 GB      
 SF USED    *         1.91 GB      
 GA USED    *         2.40 MB       (max)       0.00 MB       (current)
 **********************************************************************************************************************************

     CCSD(T)-F12        HF-SCF  
   -264.76002296   -263.76969408
 **********************************************************************************************************************************
 Variable memory released
