
 Primary working directories    : /scratch/kee
 Secondary working directories  : /scratch/kee
 Wavefunction directory         : /home/kee/wfu/
 Main file repository           : /scratch/kee/

 ARCHNAME  : Linux/x86_64
 FC        : /opt/intel/composer_xe_2015.0.090/bin/intel64/ifort
 FCVERSION : 15.0.0
 BLASLIB   : -L/opt/intel/mkl/lib/intel64 -lmkl_intel_ilp64 -lmkl_sequential -lmkl_core
 id        : emory

 Nodes     nprocs
 node24       3
 Number of processes for MPI-2 version of Molpro:   nprocs(total)=    4   nprocs(compute)=    3   nprocs(helper)=    1
 ga_uses_ma=false, calling ma_init with nominal heap.
 GA-space will be limited to   8.0 MW (determined by -G option)

 Using customized tuning parameters: mindgm=7; mindgv=32; mindgc=1; mindgr=1; noblas=0; mincuda=1000; minvec=7
 default implementation of scratch files=sf  

 ***,co2h2o
 memory,100,m
 basis avtz
 geomtype = xyz
 geometry = {
 6
       0.00000000
 O     0.00032100    1.15989800    0.00000000
 O     0.00041400   -1.15989400    0.00000000
 O     3.52724356    2.57753824    0.92456138
 H     4.31879808    2.88649389    0.48221274
 H     3.84122937    2.09891049    1.69268361
 C     0.01953800    0.00000300    0.00000000
 }
 hf
 ccsd(t)-f12
 ---

 Variables initialized (665), CPU time= 0.01 sec
 Commands  initialized (462), CPU time= 0.00 sec, 486 directives.
 Default parameters read. Elapsed time= 0.03 sec

 Checking input...
 Passed
1


                                         ***  PROGRAM SYSTEM MOLPRO  ***
                         Copyright, University College Cardiff Consultants Limited, 2008

                                    Version 2010.1 linked 9 Dec 2014 15:06:28 


 **********************************************************************************************************************************
 LABEL *   co2h2o                                                                        
 Linux-2.6.32-504.el6.x86_64/node24(x86_64) 64 bit mpp version                           DATE: 15-Dec-16          TIME: 00:52:02  
 **********************************************************************************************************************************

 Patch level:      19
 **********************************************************************************************************************************

 Variable memory set to  100000000 words,  buffer space   230000 words

 SETTING BASIS          =    AVTZ
 SETTING GEOMTYPE       =    XYZ

Geometry recognized as XYZ



 Recomputing integrals since basis changed


 Using spherical harmonics

 Library entry O      S aug-cc-pVTZ          selected for orbital group  1
 Library entry O      P aug-cc-pVTZ          selected for orbital group  1
 Library entry O      D aug-cc-pVTZ          selected for orbital group  1
 Library entry O      F aug-cc-pVTZ          selected for orbital group  1
 Library entry H      S aug-cc-pVTZ          selected for orbital group  2
 Library entry H      P aug-cc-pVTZ          selected for orbital group  2
 Library entry H      D aug-cc-pVTZ          selected for orbital group  2
 Library entry C      S aug-cc-pVTZ          selected for orbital group  3
 Library entry C      P aug-cc-pVTZ          selected for orbital group  3
 Library entry C      D aug-cc-pVTZ          selected for orbital group  3
 Library entry C      F aug-cc-pVTZ          selected for orbital group  3

1PROGRAM * SEWARD (Integral evaluation for generally contracted gaussian basis sets)     Author: Roland Lindh, 1990

 Geometry written to block  1 of record 700


 Point group  C1  



 ATOMIC COORDINATES

 NR  ATOM    CHARGE       X              Y              Z

   1  O       8.00    0.000606602    2.191889560    0.000000000
   2  O       8.00    0.000782347   -2.191882001    0.000000000
   3  O       8.00    6.665524327    4.870841367    1.747167800
   4  H       1.00    8.161345588    5.454682932    0.911250016
   5  H       1.00    7.258871517    3.966366000    3.198708450
   6  C       6.00    0.036921469    0.000005669    0.000000000

 Bond lengths in Bohr (Angstrom)

 1-6  2.192184701  2-6  2.192185575  3-4  1.810279194  3-5  1.810278110
     (1.160054182)     (1.160054644)     (0.957958491)     (0.957957918)

 Bond angles

  1-6-2  178.10622893   4-3-5  105.10354935

 NUCLEAR CHARGE:                   32
 NUMBER OF PRIMITIVE AOS:         322
 NUMBER OF SYMMETRY AOS:          282
 NUMBER OF CONTRACTIONS:          230   ( 230A   )
 NUMBER OF CORE ORBITALS:           4   (   4A   )
 NUMBER OF VALENCE ORBITALS:       18   (  18A   )


 NUCLEAR REPULSION ENERGY   93.11790845


 Eigenvalues of metric

         1 0.331E-03 0.361E-03 0.375E-03 0.380E-03 0.886E-03 0.900E-03 0.160E-02 0.165E-02


 Contracted 2-electron integrals neglected if value below      1.0D-11
 AO integral compression algorithm  1   Integral accuracy      1.0D-11

     968.098 MB (compressed) written to integral file ( 29.5%)

     Node minimum: 307.495 MB, node maximum: 351.797 MB


 NUMBER OF SORTED TWO-ELECTRON INTEGRALS:  117629820.     BUFFER LENGTH:  32768
 NUMBER OF SEGMENTS:   8  SEGMENT LENGTH:   15997437      RECORD LENGTH: 524288

 Memory used in sort:      16.55 MW

 SORT1 READ   410360449. AND WROTE    77923945. INTEGRALS IN    225 RECORDS. CPU TIME:     4.87 SEC, REAL TIME:     5.62 SEC
 SORT2 READ   233060344. AND WROTE   352862895. INTEGRALS IN   3519 RECORDS. CPU TIME:     1.54 SEC, REAL TIME:     2.13 SEC

 Node minimum:   117612110.  Node maximum:   117629820. integrals

 OPERATOR DM      FOR CENTER  0  COORDINATES:    0.000000    0.000000    0.000000


 **********************************************************************************************************************************
 DATASETS  * FILE   NREC   LENGTH (MB)   RECORD NAMES
              1      18        4.62       500      610      700      900      950      970     1000      129      960     1100   
                                          VAR    BASINP    GEOM    SYMINP    ZMAT    AOBASIS   BASIS     P2S    ABASIS      S 
                                         1400     1410     1200     1210     1080     1600     1650     1700   
                                           T        V       H0       H01     AOSYM     SMH    MOLCAS    OPER   

 PROGRAMS   *        TOTAL       INT
 CPU TIMES  *        10.88     10.80
 REAL TIME  *        12.55 SEC
 DISK USED  *         3.70 GB      
 GA USED    *         0.00 MB       (max)       0.00 MB       (current)
 **********************************************************************************************************************************

1PROGRAM * RHF-SCF (CLOSED SHELL)       Authors: W. Meyer, H.-J. Werner


 NUMBER OF ELECTRONS:      16+   16-    SPACE SYMMETRY=1    SPIN SYMMETRY=Singlet 
 CONVERGENCE THRESHOLDS:    1.00E-05 (Density)    1.00E-07 (Energy)
 MAX. NUMBER OF ITERATIONS:       60
 INTERPOLATION TYPE:            DIIS
 INTERPOLATION STEPS:              2 (START)      1 (STEP)
 LEVEL SHIFTS:                  0.00 (CLOSED)  0.00 (OPEN) 



 Orbital guess generated from atomic densities. Full valence occupancy:   22

 Molecular orbital dump at record        2100.2

 ITERATION    DDIFF          GRAD             ENERGY        2-EL.EN.            DIPOLE MOMENTS         DIIS
    1      0.000D+00      0.000D+00      -263.66050280    382.173321    1.12584   -0.16373    0.31506    0
    2      0.000D+00      0.469D-02      -263.72580691    377.430480    0.66372   -0.02150    0.18706    1
    3      0.751D-02      0.318D-02      -263.76908275    380.031777    0.78109   -0.07431    0.21743    2
    4      0.309D-02      0.297D-03      -263.76957215    379.818515    0.78359   -0.06541    0.21844    3
    5      0.358D-03      0.879D-04      -263.76962955    379.821313    0.77891   -0.07098    0.21698    4
    6      0.134D-03      0.364D-04      -263.76963702    379.834571    0.77939   -0.06719    0.21714    5
    7      0.448D-04      0.983D-05      -263.76963783    379.827655    0.77907   -0.06870    0.21705    6
    8      0.155D-04      0.335D-05      -263.76963790    379.827341    0.77900   -0.06800    0.21702    7
    9      0.451D-05      0.176D-05      -263.76963791    379.828135    0.77902   -0.06832    0.21703    0

 Final occupancy:  16

 !RHF STATE 1.1 Energy               -263.769637912775
 Nuclear energy                        93.11790845
 One-electron energy                 -546.80161387
 Two-electron energy                  189.91406751
 Virial quotient                       -1.00173241
 !RHF STATE 1.1 Dipole moment           0.77901873    -0.06832392     0.21703129
 Dipole moment /Debye                   1.97993843    -0.17365072     0.55160240

 Orbital energies:

         1.1          2.1          3.1          4.1          5.1          6.1          7.1          8.1          9.1         10.1
    -20.644947   -20.643494   -20.568085   -11.452230    -1.523655    -1.470451    -1.353872    -0.792361    -0.735119    -0.719683

        11.1         12.1         13.1         14.1         15.1         16.1         17.1         18.1
     -0.707565    -0.707350    -0.584496    -0.536255    -0.536010    -0.511167     0.027471     0.046009


 **********************************************************************************************************************************
 DATASETS  * FILE   NREC   LENGTH (MB)   RECORD NAMES
              1      18        4.62       500      610      700      900      950      970     1000      129      960     1100   
                                          VAR    BASINP    GEOM    SYMINP    ZMAT    AOBASIS   BASIS     P2S    ABASIS      S 
                                         1400     1410     1200     1210     1080     1600     1650     1700   
                                           T        V       H0       H01     AOSYM     SMH    MOLCAS    OPER   

              2       3        1.44       700     1000     2100   
                                         GEOM     BASIS     RHF  

 PROGRAMS   *        TOTAL        HF       INT
 CPU TIMES  *        22.04     11.16     10.80
 REAL TIME  *        24.14 SEC
 DISK USED  *         3.74 GB      
 SF USED    *         0.21 MB      
 GA USED    *         0.00 MB       (max)       0.00 MB       (current)
 **********************************************************************************************************************************


1PROGRAM * CCSD (Closed-shell coupled cluster)     Authors: C. Hampel, H.-J. Werner, 1991, M. Deegan, P.J. Knowles, 1992

                                  CCSD-F12 implementation by  H.-J. Werner, 2007

                   Density fitting integral evaluation by F.R. Manby, 2003,2007, G. Knizia, 2010

 Basis set CC-PVTZ/JKFIT generated.      Number of basis functions:   376 
 Basis set AUG-CC-PVTZ/MP2FIT generated. Number of basis functions:   516 

 Convergence thresholds:  THRVAR = 1.00D-08  THRDEN = 1.00D-06

 CCSD(T)     terms to be evaluated (factor= 1.000)


 Number of core orbitals:           4 (   4 )
 Number of closed-shell orbitals:  12 (  12 )
 Number of external orbitals:     214 ( 214 )

 Molecular orbitals read from record     2100.2  Type=RHF/CANONICAL (state 1.1)

 MP2-F12 correlation treatment (H.-J. Werner, 2006)
 --------------------------------------------------

 Using MP2-F12 with ansatz 3C(FIX)

 Using projected zeroth-order Hamiltonian (+Z)

 FOCKRIB=T FOCKRIC=T FOCKRIP=T CABSP=T CABSA=T CABSK=T CABSF=T GBC=F EBC=F DMAT=T NOFIK=T NOPAO=1 SOLVE=-1  USEPAO=0
 EXCH_A= T EXCH_B= F EXCH_C= F EXCH_P= F
 
 Geminal basis:    OPTFULL  GEM_TYPE=SLATER  BETA=1.0  NGEM=6

 Optimizing Gaussian exponents for each gem_beta

 Geminal optimization for beta= 1.0000
 Weight function:   m=0, omega= 1.4646

 Augmented Hessian optimization of geminal fit. Trust ratio= 0.40000
 Convergence reached after   2 iterations. Final gradient= 8.24D-16, Step= 4.32D-06, Delta= 1.28D-09
 
 Alpha:                 0.19532     0.81920     2.85917     9.50073    35.69989   197.79328
 Coeff:                 0.27070     0.30552     0.18297     0.10986     0.06810     0.04224
 

 All pairs explicitly correlated. Number of r12-pairs:           78
 
 AO(A)-basis ORBITAL           loaded. Number of functions:     230
 RI(R)-basis CC-PVTZ/JKFIT     loaded. Number of functions:     376
 DF-basis CC-PVTZ/JKFIT        loaded. Number of functions:     376

 Screening thresholds:   THRAO=  1.00D-10  THRMO=  1.00D-09  THRPROD=  1.00D-09
                         THRSW=  1.00D-05  THROV=  1.00D-12  THRF12=   1.00D-08

 CPU time for Fock operators                      0.94 sec
 
 Construction of ABS:
 Smallest eigenvalue of S          2.56E-04  (threshold= 1.00E-08)
 Ratio eigmin/eigmax               1.83E-06  (threshold= 1.00E-09)
 Smallest eigenvalue of S kept     2.56E-04  (threshold= 2.56E-04, 0 functions deleted, 376 kept)
 
 Construction of CABS:
 Smallest eigenvalue of S          2.26E-08  (threshold= 1.00E-08)
 Ratio eigmin/eigmax               2.26E-08  (threshold= 1.00E-09)
 Smallest eigenvalue of S kept     2.26E-08  (threshold= 2.26E-08, 0 functions deleted, 376 kept)
 
 CPU time for CABS singles                        0.16 sec

 CABS-singles contribution of  -0.01596296 patched into reference energy.
 New reference energy        -263.78560088
 
 AO(A)-basis ORBITAL           loaded. Number of functions:     230
 RI(R)-basis CC-PVTZ/JKFIT     loaded. Number of functions:     376
 DF-basis AUG-CC-PVTZ/MP2FIT   loaded. Number of functions:     516

 Screening thresholds:   THRAO=  1.00D-10  THRMO=  1.00D-09  THRPROD=  1.00D-09
                         THRSW=  1.00D-05  THROV=  1.00D-12  THRF12=   1.00D-08

 CPU time for 3-index integral evaluation         2.41 sec
 CPU time for first  half transformation          0.35 sec ( 8511.7 MFLOP/sec)
 CPU time for second half transformation          0.03 sec ( 3456.3 MFLOP/sec)
 CPU time for sorting                             0.16 sec
 CPU time for fitting                             0.04 sec (34826.3 MFLOP/sec)
 CPU time for tilde quantities                    0.06 sec (30814.7 MFLOP/sec)
 CPU time for assembly                            0.77 sec (30078.1 MFLOP/sec)
 CPU time for tranop_f12                          0.91 sec (33873.3 MFLOP/sec)
 CPU time for f12 integrals (total)               6.74 sec
 F12-matrices built in  3 passes.
 F12-matrices built in  3 passes.
 F12-matrices built in  3 passes.
 F12-matrices built in  3 passes.
 FC-matrix built in  3 passes.
 CPU time for f12 matrices (total)                0.47 sec

 Diagonal F12 approximation with fixed coefficients:  TSING= 0.500,  TTRIP= 0.250 (scaled by -1/beta)

 DF-MP2-F12 energy corrections:
 ------------------------------
 Approx.                                    Singlet             Triplet             Total
 DF-MP2-F12/3*C(DX,FIX)                -0.097468374711     -0.016950184984     -0.114418559695
 DF-MP2-F12/3*C(FIX)                   -0.079870656413     -0.013410400371     -0.093281056784
 DF-MP2-F12/3C(FIX)                    -0.080231851150     -0.013435411732     -0.093667262882

 DF-MP2-F12 correlation energies:
 --------------------------------
 Approx.                                    Singlet             Triplet             Ecorr            Total Energy
 DF-MP2                                -0.537509030827     -0.343055684043     -0.880564714870   -264.666165592266
 DF-MP2-F12/3*C(DX,FIX)                -0.634977405538     -0.360005869027     -0.994983274565   -264.780584151961
 DF-MP2-F12/3*C(FIX)                   -0.617379687240     -0.356466084414     -0.973845771654   -264.759446649050
 DF-MP2-F12/3C(FIX)                    -0.617740881977     -0.356491095775     -0.974231977753   -264.759832855149

 SCS-DF-MP2 energies (F_SING= 1.20000  F_TRIP= 0.62222  F_PARALLEL= 0.33333):
 ----------------------------------------------------------------------------
 SCS-DF-MP2                            -0.858467707064   -264.644068584460
 SCS-DF-MP2-F12/3*C(DX,FIX)            -0.985976538485   -264.771577415881
 SCS-DF-MP2-F12/3*C(FIX)               -0.962656743879   -264.748257621275
 SCS-DF-MP2-F12/3C(FIX)                -0.963105740188   -264.748706617585
 Symmetry transformation completed.

 Number of N-1 electron functions:              12
 Number of N-2 electron functions:              78
 Number of singly external CSFs:              2568
 Number of doubly external CSFs:           3298596
 Total number of CSFs:                     3301165

 Pair and operator lists are different

 Length of J-op  integral file:             474.22 MB
 Length of K-op  integral file:             572.29 MB
 Length of 3-ext integral record:             0.00 MB

 For full I/O caching in triples, increase memory by 50.81 Mwords to 151.09 Mwords.

 Integral transformation finished. Total CPU:  12.65 sec, npass=  1  Memory used:  87.46 MW

 Reference energy:                   -263.78560088

 Adding F12 terms to K(Cij), methodcc=6,  factor=1.0

 ITER.      SQ.NORM     CORR.ENERGY   TOTAL ENERGY   ENERGY CHANGE        DEN1      VAR(S)    VAR(P)  DIIS     TIME
   1      1.20190087    -0.86259081  -264.64819168     0.01798947     0.04648460  0.71D-02  0.55D-02  1  1    29.84
   2      1.21615133    -0.85839771  -264.64399859     0.00419310    -0.02007687  0.85D-04  0.58D-03  2  2    38.93
   3      1.22146819    -0.85849193  -264.64409281    -0.00009422    -0.00235121  0.13D-03  0.32D-04  3  3    47.94
   4      1.22424358    -0.85836609  -264.64396697     0.00012584    -0.00140226  0.74D-05  0.41D-05  4  4    56.53
   5      1.22525927    -0.85832898  -264.64392986     0.00003712    -0.00036201  0.55D-06  0.28D-06  5  5    65.16
   6      1.22541926    -0.85830250  -264.64390338     0.00002647    -0.00000787  0.39D-07  0.24D-07  6  6    73.79
   7      1.22544829    -0.85830012  -264.64390099     0.00000239    -0.00000616  0.26D-08  0.40D-08  6  4    82.39
   8      1.22544867    -0.85829963  -264.64390050     0.00000049     0.00000189  0.39D-09  0.27D-09  6  1    91.05
   9      1.22544928    -0.85829970  -264.64390057    -0.00000007     0.00000056  0.28D-10  0.22D-10  6  2    99.67

 Norm of t1 vector:      0.10547123      S-energy:     0.00000151      T1 diagnostic:  0.01522346
                                                                       D1 diagnostic:  0.04468092

 Adding energy correction from Wij-K(Fij), methodcc=6  factor=1.0
 
  CCSD correlation energy              -0.858299695674
  MP2-F12 correction (uncoupled)       -0.092514910007
  C*T doubles correction               -0.001472777442
  f12b correction                       0.015402666155


 Total CPU time for triples:    197.47 sec


 RESULTS
 =======

  Reference energy                   -263.769637912775
  F12 singles correction               -0.015962964621

 F12 singles corrections added to reference energy

  New reference energy               -263.785600877396

  F12a singlet correction              -0.080434118861
  F12a triplet correction              -0.013553568589
  F12a total correction                -0.093987687450

 F12a corrections for ansatz F12/3C(FIX) added to CCSD energy
 
  CCSD-F12a singlet pair energy        -0.641654431508
  CCSD-F12a triplet pair energy        -0.310634463953
  CCSD-F12a correlation energy         -0.952287383124

  Triples (T) contribution             -0.037581884535
  Total correlation energy             -0.989869267659

  CCSD-F12a total energy             -264.737888260520
  CCSD[T]-F12a energy                -264.777993266783
  CCSD-T-F12a energy                 -264.774538604121
 !CCSD(T)-F12a total energy          -264.775470145055

 F12b corrections for ansatz F12/3C(FIX) added to CCSD(T)-F12a energy

  CCSD-F12b singlet pair energy        -0.627476187238
  CCSD-F12b triplet pair energy        -0.309410042068
  CCSD-F12b correlation energy         -0.936884716969

  Triples (T) contribution             -0.037581884535
  Total correlation energy             -0.974466601504

  CCSD-F12b total energy             -264.722485594365
  CCSD[T]-F12b energy                -264.762590600628
  CCSD-T-F12b energy                 -264.759135937966
 !CCSD(T)-F12b total energy          -264.760067478900

 Timing summary (sec):

 STEP                 CPU(USER)    SYS     CPU(TOT)    WALL
 Transformation         12.76      1.08     13.84     13.84
 CCSD iterations        78.10      2.98     81.08     81.06
 Triples               197.47      2.06    199.53    199.65
 MP2-F12                 8.84      1.17     10.01     10.01
 F12b energy             5.99      0.08      6.07      6.06

 Program statistics:

 Available memory in ccsd:                99998934
 Min. memory needed in ccsd:               8644845
 Max. memory used in ccsd:                11598633
 Max. memory used in cckext:               8768967 (10 integral passes)



 **********************************************************************************************************************************
 DATASETS  * FILE   NREC   LENGTH (MB)   RECORD NAMES
              1      20      527.84       500      610      700      900      950      970     1000      129      960     1100   
                                          VAR    BASINP    GEOM    SYMINP    ZMAT    AOBASIS   BASIS     P2S    ABASIS      S 
                                         1400     1410     1200     1210     1080     1600     1650     1700      960(1)  1380   
                                           T        V       H0       H01     AOSYM     SMH    MOLCAS    OPER    ABASIS    JKOP   

              2       5        2.50       700     1000     2100     7360     7350   
                                         GEOM     BASIS     RHF    F12ABS    EF12   

 PROGRAMS   *        TOTAL   CCSD(T)        HF       INT
 CPU TIMES  *       325.50    303.46     11.16     10.80
 REAL TIME  *       335.13 SEC
 DISK USED  *         4.60 GB      
 SF USED    *         1.91 GB      
 GA USED    *         2.40 MB       (max)       0.00 MB       (current)
 **********************************************************************************************************************************

     CCSD(T)-F12        HF-SCF  
   -264.76006748   -263.76963791
 **********************************************************************************************************************************
 Variable memory released
