
 Primary working directories    : /scratch/kee
 Secondary working directories  : /scratch/kee
 Wavefunction directory         : /home/kee/wfu/
 Main file repository           : /scratch/kee/

 ARCHNAME  : Linux/x86_64
 FC        : /opt/intel/composer_xe_2015.0.090/bin/intel64/ifort
 FCVERSION : 15.0.0
 BLASLIB   : -L/opt/intel/mkl/lib/intel64 -lmkl_intel_ilp64 -lmkl_sequential -lmkl_core
 id        : emory

 Nodes     nprocs
 node5        3
 Number of processes for MPI-2 version of Molpro:   nprocs(total)=    4   nprocs(compute)=    3   nprocs(helper)=    1
 ga_uses_ma=false, calling ma_init with nominal heap.
 GA-space will be limited to   8.0 MW (determined by -G option)

 Using customized tuning parameters: mindgm=7; mindgv=32; mindgc=1; mindgr=1; noblas=0; mincuda=1000; minvec=7
 default implementation of scratch files=sf  

 ***,co2h2o
 memory,100,m
 basis avtz
 geomtype = xyz
 geometry = {
 3
    -264.76489694
 O    -8.39123410    0.00330789    0.00000000
 H    -8.97486711    0.76390254    0.00000000
 H    -8.97459900   -0.75749403    0.00000000
 }
 hf
 ccsd(t)-f12
 ---

 Variables initialized (665), CPU time= 0.00 sec
 Commands  initialized (462), CPU time= 0.01 sec, 486 directives.
 Default parameters read. Elapsed time= 0.04 sec

 Checking input...
 Passed
1


                                         ***  PROGRAM SYSTEM MOLPRO  ***
                         Copyright, University College Cardiff Consultants Limited, 2008

                                    Version 2010.1 linked 9 Dec 2014 15:06:28 


 **********************************************************************************************************************************
 LABEL *   co2h2o                                                                        
 Linux-2.6.32-504.el6.x86_64/node5(x86_64) 64 bit mpp version                            DATE: 06-Dec-16          TIME: 23:39:22  
 **********************************************************************************************************************************

 Patch level:      19
 **********************************************************************************************************************************

 Variable memory set to  100000000 words,  buffer space   230000 words

 SETTING BASIS          =    AVTZ
 SETTING GEOMTYPE       =    XYZ

Geometry recognized as XYZ



 Recomputing integrals since basis changed


 Using spherical harmonics

 Library entry O      S aug-cc-pVTZ          selected for orbital group  1
 Library entry O      P aug-cc-pVTZ          selected for orbital group  1
 Library entry O      D aug-cc-pVTZ          selected for orbital group  1
 Library entry O      F aug-cc-pVTZ          selected for orbital group  1
 Library entry H      S aug-cc-pVTZ          selected for orbital group  2
 Library entry H      P aug-cc-pVTZ          selected for orbital group  2
 Library entry H      D aug-cc-pVTZ          selected for orbital group  2

1PROGRAM * SEWARD (Integral evaluation for generally contracted gaussian basis sets)     Author: Roland Lindh, 1990

 Geometry written to block  1 of record 700


 Point group  Cs  



 ATOMIC COORDINATES

 NR  ATOM    CHARGE       X              Y              Z

   1  O       8.00  -15.857134354    0.006251006    0.000000000
   2  H       1.00  -16.960040904    1.443566592    0.000000000
   3  H       1.00  -16.959534249   -1.431456263    0.000000000

 Bond lengths in Bohr (Angstrom)

 1-2  1.811706088  1-3  1.811708509
     (0.958713571)     (0.958714852)

 Bond angles

  2-1-3  105.01947441

 NUCLEAR CHARGE:                   10
 NUMBER OF PRIMITIVE AOS:         121
 NUMBER OF SYMMETRY AOS:          108
 NUMBER OF CONTRACTIONS:           92   (  62A'  +  30A"  )
 NUMBER OF CORE ORBITALS:           1   (   1A'  +   0A"  )
 NUMBER OF VALENCE ORBITALS:        6   (   5A'  +   1A"  )


 NUCLEAR REPULSION ENERGY    9.17927198


 Eigenvalues of metric

         1 0.384E-03 0.393E-03 0.167E-02 0.186E-02 0.320E-02 0.511E-02 0.555E-02 0.624E-02
         2 0.595E-02 0.124E-01 0.365E-01 0.642E-01 0.679E-01 0.111E+00 0.128E+00 0.173E+00


 Contracted 2-electron integrals neglected if value below      1.0D-11
 AO integral compression algorithm  1   Integral accuracy      1.0D-11

     27.263 MB (compressed) written to integral file ( 56.8%)

     Node minimum: 4.981 MB, node maximum: 11.272 MB


 NUMBER OF SORTED TWO-ELECTRON INTEGRALS:    1581093.     BUFFER LENGTH:  32768
 NUMBER OF SEGMENTS:   1  SEGMENT LENGTH:    1581093      RECORD LENGTH: 524288

 Memory used in sort:       2.14 MW

 SORT1 READ     6056294. AND WROTE     1488024. INTEGRALS IN      5 RECORDS. CPU TIME:     0.13 SEC, REAL TIME:     0.16 SEC
 SORT2 READ     4465150. AND WROTE     4740861. INTEGRALS IN    126 RECORDS. CPU TIME:     0.07 SEC, REAL TIME:     0.12 SEC

 Node minimum:     1579481.  Node maximum:     1581093. integrals

 OPERATOR DM      FOR CENTER  0  COORDINATES:    0.000000    0.000000    0.000000


 **********************************************************************************************************************************
 DATASETS  * FILE   NREC   LENGTH (MB)   RECORD NAMES
              1      18        2.77       500      610      700      900      950      970     1000      129      960     1100   
                                          VAR    BASINP    GEOM    SYMINP    ZMAT    AOBASIS   BASIS     P2S    ABASIS      S 
                                         1400     1410     1200     1210     1080     1600     1650     1700   
                                           T        V       H0       H01     AOSYM     SMH    MOLCAS    OPER   

 PROGRAMS   *        TOTAL       INT
 CPU TIMES  *         0.46      0.39
 REAL TIME  *         0.59 SEC
 DISK USED  *        84.31 MB      
 GA USED    *         0.00 MB       (max)       0.00 MB       (current)
 **********************************************************************************************************************************

1PROGRAM * RHF-SCF (CLOSED SHELL)       Authors: W. Meyer, H.-J. Werner


 NUMBER OF ELECTRONS:       5+    5-
 CONVERGENCE THRESHOLDS:    1.00E-05 (Density)    1.00E-07 (Energy)
 MAX. NUMBER OF ITERATIONS:       60
 INTERPOLATION TYPE:            DIIS
 INTERPOLATION STEPS:              2 (START)      1 (STEP)
 LEVEL SHIFTS:                  0.00 (CLOSED)  0.00 (OPEN) 



 Orbital guess generated from atomic densities. Full valence occupancy:    6   1

 Molecular orbital dump at record        2100.2

 Initial alpha occupancy:   4   1
 Initial beta  occupancy:   4   1
 Wave function symmetry:    1

 ITERATION    DDIFF          GRAD             ENERGY        2-EL.EN.            DIPOLE MOMENTS         DIIS
    1      0.000D+00      0.000D+00       -76.02281353     77.632394   -1.12852   -0.00020    0.00000    0
    2      0.000D+00      0.874D-02       -76.04952014     74.066895   -0.66851   -0.00012    0.00000    1
    3      0.148D-01      0.545D-02       -76.06033539     75.629259   -0.78212   -0.00014    0.00000    2
    4      0.521D-02      0.506D-03       -76.06051640     75.540820   -0.77871   -0.00014    0.00000    3
    5      0.677D-03      0.136D-03       -76.06053389     75.554278   -0.77747   -0.00014    0.00000    4
    6      0.204D-03      0.254D-04       -76.06053488     75.553563   -0.77731   -0.00014    0.00000    5
    7      0.483D-04      0.485D-05       -76.06053493     75.553678   -0.77722   -0.00014    0.00000    6
    8      0.128D-04      0.936D-06       -76.06053493     75.553637   -0.77719   -0.00014    0.00000    5
    9      0.218D-05      0.271D-06       -76.06053493     75.553675   -0.77719   -0.00014    0.00000    0

 Final occupancy:   4   1

 !RHF STATE 1.1 Energy                -76.060534927423
 Nuclear energy                         9.17927198
 One-electron energy                 -123.01664419
 Two-electron energy                   37.77683728
 Virial quotient                       -1.00142929
 !RHF STATE 1.1 Dipole moment          -0.77718707    -0.00013782     0.00000000
 Dipole moment /Debye                  -1.97528311    -0.00035027     0.00000000

 Orbital energies:

         1.1          2.1          3.1          4.1          5.1          6.1
    -20.567229    -1.352477    -0.718013    -0.583675     0.029458     0.047647

         1.2          2.2          3.2
     -0.510091     0.158500     0.265072


 **********************************************************************************************************************************
 DATASETS  * FILE   NREC   LENGTH (MB)   RECORD NAMES
              1      18        2.77       500      610      700      900      950      970     1000      129      960     1100   
                                          VAR    BASINP    GEOM    SYMINP    ZMAT    AOBASIS   BASIS     P2S    ABASIS      S 
                                         1400     1410     1200     1210     1080     1600     1650     1700   
                                           T        V       H0       H01     AOSYM     SMH    MOLCAS    OPER   

              2       3        0.39       700     1000     2100   
                                         GEOM     BASIS     RHF  

 PROGRAMS   *        TOTAL        HF       INT
 CPU TIMES  *         0.59      0.13      0.39
 REAL TIME  *         0.76 SEC
 DISK USED  *        96.12 MB      
 SF USED    *         0.02 MB      
 GA USED    *         0.00 MB       (max)       0.00 MB       (current)
 **********************************************************************************************************************************


1PROGRAM * CCSD (Closed-shell coupled cluster)     Authors: C. Hampel, H.-J. Werner, 1991, M. Deegan, P.J. Knowles, 1992

                                  CCSD-F12 implementation by  H.-J. Werner, 2007

                   Density fitting integral evaluation by F.R. Manby, 2003,2007, G. Knizia, 2010

 Basis set CC-PVTZ/JKFIT generated.      Number of basis functions:   139 
 Basis set AUG-CC-PVTZ/MP2FIT generated. Number of basis functions:   198 

 Convergence thresholds:  THRVAR = 1.00D-08  THRDEN = 1.00D-06

 CCSD(T)     terms to be evaluated (factor= 1.000)


 Number of core orbitals:           1 (   1   0 )
 Number of closed-shell orbitals:   4 (   3   1 )
 Number of external orbitals:      87 (  58  29 )

 Molecular orbitals read from record     2100.2  Type=RHF/CANONICAL (state 1.1)

 MP2-F12 correlation treatment (H.-J. Werner, 2006)
 --------------------------------------------------

 Using MP2-F12 with ansatz 3C(FIX)

 Using projected zeroth-order Hamiltonian (+Z)

 FOCKRIB=T FOCKRIC=T FOCKRIP=T CABSP=T CABSA=T CABSK=T CABSF=T GBC=F EBC=F DMAT=T NOFIK=T NOPAO=1 SOLVE=-1  USEPAO=0
 EXCH_A= T EXCH_B= F EXCH_C= F EXCH_P= F
 
 Geminal basis:    OPTFULL  GEM_TYPE=SLATER  BETA=1.0  NGEM=6

 Optimizing Gaussian exponents for each gem_beta

 Geminal optimization for beta= 1.0000
 Weight function:   m=0, omega= 1.4646

 Augmented Hessian optimization of geminal fit. Trust ratio= 0.40000
 Convergence reached after   2 iterations. Final gradient= 8.24D-16, Step= 4.32D-06, Delta= 1.28D-09
 
 Alpha:                 0.19532     0.81920     2.85917     9.50073    35.69989   197.79328
 Coeff:                 0.27070     0.30552     0.18297     0.10986     0.06810     0.04224
 

 Symmetry turned off. Reference energy:        -76.060534927423

 All pairs explicitly correlated. Number of r12-pairs:           10
 
 AO(A)-basis ORBITAL           loaded. Number of functions:      92
 RI(R)-basis CC-PVTZ/JKFIT     loaded. Number of functions:     139
 DF-basis CC-PVTZ/JKFIT        loaded. Number of functions:     139

 Screening thresholds:   THRAO=  1.00D-10  THRMO=  1.00D-09  THRPROD=  1.00D-09
                         THRSW=  1.00D-05  THROV=  1.00D-12  THRF12=   1.00D-08

 CPU time for Fock operators                      0.08 sec
 
 Construction of ABS:
 Smallest eigenvalue of S          3.60E-04  (threshold= 1.00E-08)
 Ratio eigmin/eigmax               3.31E-06  (threshold= 1.00E-09)
 Smallest eigenvalue of S kept     3.60E-04  (threshold= 3.60E-04, 0 functions deleted, 139 kept)
 
 Construction of CABS:
 Smallest eigenvalue of S          4.95E-08  (threshold= 1.00E-08)
 Ratio eigmin/eigmax               4.95E-08  (threshold= 1.00E-09)
 Smallest eigenvalue of S kept     4.95E-08  (threshold= 4.95E-08, 0 functions deleted, 139 kept)
 
 CPU time for CABS singles                        0.02 sec

 CABS-singles contribution of  -0.00457576 patched into reference energy.
 New reference energy         -76.06511069
 
 AO(A)-basis ORBITAL           loaded. Number of functions:      92
 RI(R)-basis CC-PVTZ/JKFIT     loaded. Number of functions:     139
 DF-basis AUG-CC-PVTZ/MP2FIT   loaded. Number of functions:     198

 Screening thresholds:   THRAO=  1.00D-10  THRMO=  1.00D-09  THRPROD=  1.00D-09
                         THRSW=  1.00D-05  THROV=  1.00D-12  THRF12=   1.00D-08

 CPU time for 3-index integral evaluation         0.24 sec
 CPU time for first  half transformation          0.01 sec ( 5965.1 MFLOP/sec)
 CPU time for sorting                             0.01 sec
 CPU time for assembly                            0.01 sec (15895.9 MFLOP/sec)
 CPU time for tranop_f12                          0.01 sec (19286.0 MFLOP/sec)
 CPU time for f12 integrals (total)               0.44 sec
 F12-matrices built in  3 passes.
 F12-matrices built in  3 passes.
 F12-matrices built in  3 passes.
 F12-matrices built in  3 passes.
 FC-matrix built in  3 passes.
 CPU time for f12 matrices (total)                0.01 sec

 Diagonal F12 approximation with fixed coefficients:  TSING= 0.500,  TTRIP= 0.250 (scaled by -1/beta)

 DF-MP2-F12 energy corrections:
 ------------------------------
 Approx.                                    Singlet             Triplet             Total
 DF-MP2-F12/3*C(DX,FIX)                -0.029756989841     -0.004892617864     -0.034649607705
 DF-MP2-F12/3*C(FIX)                   -0.024464541444     -0.003801712281     -0.028266253725
 DF-MP2-F12/3C(FIX)                    -0.024581372354     -0.003791228027     -0.028372600381

 DF-MP2-F12 correlation energies:
 --------------------------------
 Approx.                                    Singlet             Triplet             Ecorr            Total Energy
 DF-MP2                                -0.170648167874     -0.097758322540     -0.268406490414    -76.333517178475
 DF-MP2-F12/3*C(DX,FIX)                -0.200405157716     -0.102650940403     -0.303056098119    -76.368166786180
 DF-MP2-F12/3*C(FIX)                   -0.195112709319     -0.101560034820     -0.296672744139    -76.361783432200
 DF-MP2-F12/3C(FIX)                    -0.195229540229     -0.101549550566     -0.296779090795    -76.361889778856

 SCS-DF-MP2 energies (F_SING= 1.20000  F_TRIP= 0.62222  F_PARALLEL= 0.33333):
 ----------------------------------------------------------------------------
 SCS-DF-MP2                            -0.265605202141    -76.330715890202
 SCS-DF-MP2-F12/3*C(DX,FIX)            -0.304357885510    -76.369468573571
 SCS-DF-MP2-F12/3*C(FIX)               -0.297328161737    -76.362438849799
 SCS-DF-MP2-F12/3C(FIX)                -0.297461835293    -76.362572523355

 Symmetry restored.
 Symmetry transformation completed.

 Number of N-1 electron functions:               4
 Number of N-2 electron functions:              10
 Number of singly external CSFs:               203
 Number of doubly external CSFs:             31291
 Total number of CSFs:                       31495

 Pair and operator lists are different

 Length of J-op  integral file:               8.40 MB
 Length of K-op  integral file:              12.93 MB
 Length of 3-ext integral record:             0.00 MB

 Memory could be reduced to 2.58 Mwords without degradation in triples

 Integral transformation finished. Total CPU:   0.07 sec, npass=  1  Memory used:   0.69 MW

 Reference energy:                    -76.06511069

 Adding F12 terms to K(Cij), methodcc=6,  factor=1.0

 ITER.      SQ.NORM     CORR.ENERGY   TOTAL ENERGY   ENERGY CHANGE        DEN1      VAR(S)    VAR(P)  DIIS     TIME
   1      1.06110108    -0.26824466   -76.33335535     0.00018448     0.00589742  0.74D-03  0.97D-03  1  1     0.74
   2      1.06433228    -0.26790240   -76.33301309     0.00034226    -0.00445560  0.12D-04  0.10D-03  2  2     0.78
   3      1.06545994    -0.26801313   -76.33312382    -0.00011072    -0.00076629  0.86D-05  0.53D-05  3  3     0.83
   4      1.06591063    -0.26804832   -76.33315901    -0.00003519    -0.00025944  0.36D-06  0.55D-06  4  4     0.87
   5      1.06599348    -0.26804510   -76.33315579     0.00000322    -0.00002469  0.13D-06  0.35D-07  5  5     0.91
   6      1.06602146    -0.26804321   -76.33315390     0.00000188    -0.00000402  0.10D-07  0.23D-08  6  6     0.95
   7      1.06602758    -0.26804282   -76.33315350     0.00000040    -0.00000131  0.77D-09  0.32D-09  6  1     0.99
   8      1.06602869    -0.26804293   -76.33315362    -0.00000012     0.00000015  0.87D-10  0.28D-10  6  2     1.03

 Norm of t1 vector:      0.03583229      S-energy:    -0.00000010      T1 diagnostic:  0.00895807
                                                                       D1 diagnostic:  0.01776851

 Adding energy correction from Wij-K(Fij), methodcc=6  factor=1.0
 
  CCSD correlation energy              -0.268042932850
  MP2-F12 correction (uncoupled)       -0.028078221510
  C*T doubles correction               -0.000435373062
  f12b correction                       0.004752737681


 Total CPU time for triples:      0.26 sec


 RESULTS
 =======

  Reference energy                    -76.060534927423
  F12 singles correction               -0.004575760639

 F12 singles corrections added to reference energy

  New reference energy                -76.065110688061

  F12a singlet correction              -0.024664153998
  F12a triplet correction              -0.003849440574
  F12a total correction                -0.028513594572

 F12a corrections for ansatz F12/3C(FIX) added to CCSD energy
 
  CCSD-F12a singlet pair energy        -0.206101913794
  CCSD-F12a triplet pair energy        -0.090454509017
  CCSD-F12a correlation energy         -0.296556527423

  Triples (T) contribution             -0.008435384040
  Total correlation energy             -0.304991911462

  CCSD-F12a total energy              -76.361667215484
  CCSD[T]-F12a energy                 -76.370400675527
  CCSD-T-F12a energy                  -76.369981217271
 !CCSD(T)-F12a total energy           -76.370102599524

 F12b corrections for ansatz F12/3C(FIX) added to CCSD(T)-F12a energy

  CCSD-F12b singlet pair energy        -0.201711340403
  CCSD-F12b triplet pair energy        -0.090092344728
  CCSD-F12b correlation energy         -0.291803789742

  Triples (T) contribution             -0.008435384040
  Total correlation energy             -0.300239173782

  CCSD-F12b total energy              -76.356914477804
  CCSD[T]-F12b energy                 -76.365647937846
  CCSD-T-F12b energy                  -76.365228479590
 !CCSD(T)-F12b total energy           -76.365349861843

 Timing summary (sec):

 STEP                 CPU(USER)    SYS     CPU(TOT)    WALL
 Transformation          0.07      0.02      0.09      0.10
 CCSD iterations         0.38      0.06      0.44      0.44
 Triples                 0.26      0.02      0.28      0.27
 MP2-F12                 0.59      0.06      0.65      0.65
 F12b energy             0.03      0.00      0.03      0.03

 Program statistics:

 Available memory in ccsd:                99999786
 Min. memory needed in ccsd:                157039
 Max. memory used in ccsd:                  178942
 Max. memory used in cckext:                268556 ( 9 integral passes)



 **********************************************************************************************************************************
 DATASETS  * FILE   NREC   LENGTH (MB)   RECORD NAMES
              1      20        8.84       500      610      700      900      950      970     1000      129      960     1100   
                                          VAR    BASINP    GEOM    SYMINP    ZMAT    AOBASIS   BASIS     P2S    ABASIS      S 
                                         1400     1410     1200     1210     1080     1600     1650     1700      960(1)  1380   
                                           T        V       H0       H01     AOSYM     SMH    MOLCAS    OPER    ABASIS    JKOP   

              2       5        0.49       700     1000     2100     7360     7350   
                                         GEOM     BASIS     RHF    F12ABS    EF12   

 PROGRAMS   *        TOTAL   CCSD(T)        HF       INT
 CPU TIMES  *         1.94      1.35      0.13      0.39
 REAL TIME  *         2.27 SEC
 DISK USED  *       105.65 MB      
 SF USED    *        39.49 MB      
 GA USED    *         2.40 MB       (max)       0.00 MB       (current)
 **********************************************************************************************************************************

     CCSD(T)-F12        HF-SCF  
    -76.36534986    -76.06053493
 **********************************************************************************************************************************
 Variable memory released
