
 Primary working directories    : /scratch/kee
 Secondary working directories  : /scratch/kee
 Wavefunction directory         : /home/kee/wfu/
 Main file repository           : /scratch/kee/

 ARCHNAME  : Linux/x86_64
 FC        : /opt/intel/composer_xe_2015.0.090/bin/intel64/ifort
 FCVERSION : 15.0.0
 BLASLIB   : -L/opt/intel/mkl/lib/intel64 -lmkl_intel_ilp64 -lmkl_sequential -lmkl_core
 id        : emory

 Nodes     nprocs
 node23       3
 Number of processes for MPI-2 version of Molpro:   nprocs(total)=    4   nprocs(compute)=    3   nprocs(helper)=    1
 ga_uses_ma=false, calling ma_init with nominal heap.
 GA-space will be limited to   8.0 MW (determined by -G option)

 Using customized tuning parameters: mindgm=7; mindgv=32; mindgc=1; mindgr=1; noblas=0; mincuda=1000; minvec=7
 default implementation of scratch files=sf  

 ***,co2h2o
 memory,100,m
 basis avtz
 geomtype = xyz
 geometry = {
 6
    -264.76489694
 O     0.82869278    1.16169550    0.00000000
 O     0.82658011   -1.16233555    0.00000000
 O    -5.84123430    0.00230799    0.00000000
 H    -6.42486731    0.76290264    0.00000000
 H    -6.42459920   -0.75849393    0.00000000
 C     0.80876519   -0.00029961    0.00000000
 }
 hf
 ccsd(t)-f12
 ---

 Variables initialized (665), CPU time= 0.00 sec
 Commands  initialized (462), CPU time= 0.01 sec, 486 directives.
 Default parameters read. Elapsed time= 0.03 sec

 Checking input...
 Passed
1


                                         ***  PROGRAM SYSTEM MOLPRO  ***
                         Copyright, University College Cardiff Consultants Limited, 2008

                                    Version 2010.1 linked 9 Dec 2014 15:06:28 


 **********************************************************************************************************************************
 LABEL *   co2h2o                                                                        
 Linux-2.6.32-504.el6.x86_64/node23(x86_64) 64 bit mpp version                           DATE: 12-Dec-16          TIME: 18:00:53  
 **********************************************************************************************************************************

 Patch level:      19
 **********************************************************************************************************************************

 Variable memory set to  100000000 words,  buffer space   230000 words

 SETTING BASIS          =    AVTZ
 SETTING GEOMTYPE       =    XYZ

Geometry recognized as XYZ



 Recomputing integrals since basis changed


 Using spherical harmonics

 Library entry O      S aug-cc-pVTZ          selected for orbital group  1
 Library entry O      P aug-cc-pVTZ          selected for orbital group  1
 Library entry O      D aug-cc-pVTZ          selected for orbital group  1
 Library entry O      F aug-cc-pVTZ          selected for orbital group  1
 Library entry H      S aug-cc-pVTZ          selected for orbital group  2
 Library entry H      P aug-cc-pVTZ          selected for orbital group  2
 Library entry H      D aug-cc-pVTZ          selected for orbital group  2
 Library entry C      S aug-cc-pVTZ          selected for orbital group  3
 Library entry C      P aug-cc-pVTZ          selected for orbital group  3
 Library entry C      D aug-cc-pVTZ          selected for orbital group  3
 Library entry C      F aug-cc-pVTZ          selected for orbital group  3

1PROGRAM * SEWARD (Integral evaluation for generally contracted gaussian basis sets)     Author: Roland Lindh, 1990

 Geometry written to block  1 of record 700


 Point group  Cs  



 ATOMIC COORDINATES

 NR  ATOM    CHARGE       X              Y              Z

   1  O       8.00    1.566002401    2.195286343    0.000000000
   2  O       8.00    1.562010034   -2.196495862    0.000000000
   3  O       8.00  -11.038333096    0.004361469    0.000000000
   4  H       1.00  -12.141239647    1.441677055    0.000000000
   5  H       1.00  -12.140732992   -1.433345800    0.000000000
   6  C       6.00    1.528344714   -0.000566181    0.000000000

 Bond lengths in Bohr (Angstrom)

 1-6  2.196175405  2-6  2.196187724  3-4  1.811706088  3-5  1.811708509
     (1.162165971)     (1.162172490)     (0.958713571)     (0.958714852)

 Bond angles

  1-6-2  178.13918425   4-3-5  105.01947441

 NUCLEAR CHARGE:                   32
 NUMBER OF PRIMITIVE AOS:         322
 NUMBER OF SYMMETRY AOS:          282
 NUMBER OF CONTRACTIONS:          230   ( 152A'  +  78A"  )
 NUMBER OF CORE ORBITALS:           4   (   4A'  +   0A"  )
 NUMBER OF VALENCE ORBITALS:       18   (  14A'  +   4A"  )


 NUCLEAR REPULSION ENERGY   84.45708708


 Eigenvalues of metric

         1 0.349E-03 0.374E-03 0.392E-03 0.392E-03 0.899E-03 0.921E-03 0.166E-02 0.175E-02
         2 0.318E-02 0.348E-02 0.593E-02 0.124E-01 0.136E-01 0.293E-01 0.296E-01 0.317E-01


 Contracted 2-electron integrals neglected if value below      1.0D-11
 AO integral compression algorithm  1   Integral accuracy      1.0D-11

     356.516 MB (compressed) written to integral file ( 23.8%)

     Node minimum: 112.984 MB, node maximum: 123.732 MB


 NUMBER OF SORTED TWO-ELECTRON INTEGRALS:   59950380.     BUFFER LENGTH:  32768
 NUMBER OF SEGMENTS:   4  SEGMENT LENGTH:   15995235      RECORD LENGTH: 524288

 Memory used in sort:      16.55 MW

 SORT1 READ   187359513. AND WROTE    25745941. INTEGRALS IN     75 RECORDS. CPU TIME:     1.77 SEC, REAL TIME:     2.02 SEC
 SORT2 READ    77483144. AND WROTE   179836431. INTEGRALS IN   1293 RECORDS. CPU TIME:     0.66 SEC, REAL TIME:     0.87 SEC

 Node minimum:    59940574.  Node maximum:    59950380. integrals

 OPERATOR DM      FOR CENTER  0  COORDINATES:    0.000000    0.000000    0.000000


 **********************************************************************************************************************************
 DATASETS  * FILE   NREC   LENGTH (MB)   RECORD NAMES
              1      18        3.74       500      610      700      900      950      970     1000      129      960     1100   
                                          VAR    BASINP    GEOM    SYMINP    ZMAT    AOBASIS   BASIS     P2S    ABASIS      S 
                                         1400     1410     1200     1210     1080     1600     1650     1700   
                                           T        V       H0       H01     AOSYM     SMH    MOLCAS    OPER   

 PROGRAMS   *        TOTAL       INT
 CPU TIMES  *         5.16      5.09
 REAL TIME  *         5.74 SEC
 DISK USED  *         1.27 GB      
 GA USED    *         0.00 MB       (max)       0.00 MB       (current)
 **********************************************************************************************************************************

1PROGRAM * RHF-SCF (CLOSED SHELL)       Authors: W. Meyer, H.-J. Werner


 NUMBER OF ELECTRONS:      16+   16-
 CONVERGENCE THRESHOLDS:    1.00E-05 (Density)    1.00E-07 (Energy)
 MAX. NUMBER OF ITERATIONS:       60
 INTERPOLATION TYPE:            DIIS
 INTERPOLATION STEPS:              2 (START)      1 (STEP)
 LEVEL SHIFTS:                  0.00 (CLOSED)  0.00 (OPEN) 



 Orbital guess generated from atomic densities. Full valence occupancy:   18   4

 Molecular orbital dump at record        2100.2

 Initial alpha occupancy:  13   3
 Initial beta  occupancy:  13   3
 Wave function symmetry:    1

 ITERATION    DDIFF          GRAD             ENERGY        2-EL.EN.            DIPOLE MOMENTS         DIIS
    1      0.000D+00      0.000D+00      -263.66070446    364.586303   -1.18422   -0.00012    0.00000    0
    2      0.000D+00      0.629D-02      -263.72589926    359.971183   -0.69354   -0.00010    0.00000    1
    3      0.101D-01      0.427D-02      -263.76908903    362.537662   -0.81538   -0.00009    0.00000    2
    4      0.415D-02      0.402D-03      -263.76958404    362.326537   -0.81861   -0.00009    0.00000    3
    5      0.485D-03      0.117D-03      -263.76964204    362.328129   -0.81327   -0.00009    0.00000    4
    6      0.181D-03      0.472D-04      -263.76964921    362.342717   -0.81395   -0.00009    0.00000    5
    7      0.604D-04      0.115D-04      -263.76964994    362.334335   -0.81351   -0.00009    0.00000    6
    8      0.197D-04      0.254D-05      -263.76964999    362.335638   -0.81352   -0.00009    0.00000    7
    9      0.541D-05      0.851D-06      -263.76964999    362.335443   -0.81349   -0.00009    0.00000    0

 Final occupancy:  13   3

 !RHF STATE 1.1 Energy               -263.769649989860
 Nuclear energy                        84.45708708
 One-electron energy                 -529.39445856
 Two-electron energy                  181.16772149
 Virial quotient                       -1.00183040
 !RHF STATE 1.1 Dipole moment          -0.81348624    -0.00009107     0.00000000
 Dipole moment /Debye                  -2.06754035    -0.00023146     0.00000000

 Orbital energies:

         1.1          2.1          3.1          4.1          5.1          6.1          7.1          8.1          9.1         10.1
    -20.648843   -20.648798   -20.568292   -11.457661    -1.526506    -1.473415    -1.353543    -0.796792    -0.739056    -0.719072

        11.1         12.1         13.1         14.1         15.1
     -0.710503    -0.584833    -0.540183     0.028236     0.047017

         1.2          2.2          3.2          4.2          5.2
     -0.710589    -0.540242    -0.511179     0.076636     0.158084


 **********************************************************************************************************************************
 DATASETS  * FILE   NREC   LENGTH (MB)   RECORD NAMES
              1      18        3.76       500      610      700      900      950      970     1000      129      960     1100   
                                          VAR    BASINP    GEOM    SYMINP    ZMAT    AOBASIS   BASIS     P2S    ABASIS      S 
                                         1400     1410     1200     1210     1080     1600     1650     1700   
                                           T        V       H0       H01     AOSYM     SMH    MOLCAS    OPER   

              2       3        0.96       700     1000     2100   
                                         GEOM     BASIS     RHF  

 PROGRAMS   *        TOTAL        HF       INT
 CPU TIMES  *         8.38      3.22      5.09
 REAL TIME  *         9.10 SEC
 DISK USED  *         1.29 GB      
 SF USED    *         0.12 MB      
 GA USED    *         0.00 MB       (max)       0.00 MB       (current)
 **********************************************************************************************************************************


1PROGRAM * CCSD (Closed-shell coupled cluster)     Authors: C. Hampel, H.-J. Werner, 1991, M. Deegan, P.J. Knowles, 1992

                                  CCSD-F12 implementation by  H.-J. Werner, 2007

                   Density fitting integral evaluation by F.R. Manby, 2003,2007, G. Knizia, 2010

 Basis set CC-PVTZ/JKFIT generated.      Number of basis functions:   376 
 Basis set AUG-CC-PVTZ/MP2FIT generated. Number of basis functions:   516 

 Convergence thresholds:  THRVAR = 1.00D-08  THRDEN = 1.00D-06

 CCSD(T)     terms to be evaluated (factor= 1.000)


 Number of core orbitals:           4 (   4   0 )
 Number of closed-shell orbitals:  12 (   9   3 )
 Number of external orbitals:     214 ( 139  75 )

 Molecular orbitals read from record     2100.2  Type=RHF/CANONICAL (state 1.1)

 MP2-F12 correlation treatment (H.-J. Werner, 2006)
 --------------------------------------------------

 Using MP2-F12 with ansatz 3C(FIX)

 Using projected zeroth-order Hamiltonian (+Z)

 FOCKRIB=T FOCKRIC=T FOCKRIP=T CABSP=T CABSA=T CABSK=T CABSF=T GBC=F EBC=F DMAT=T NOFIK=T NOPAO=1 SOLVE=-1  USEPAO=0
 EXCH_A= T EXCH_B= F EXCH_C= F EXCH_P= F
 
 Geminal basis:    OPTFULL  GEM_TYPE=SLATER  BETA=1.0  NGEM=6

 Optimizing Gaussian exponents for each gem_beta

 Geminal optimization for beta= 1.0000
 Weight function:   m=0, omega= 1.4646

 Augmented Hessian optimization of geminal fit. Trust ratio= 0.40000
 Convergence reached after   2 iterations. Final gradient= 8.24D-16, Step= 4.32D-06, Delta= 1.28D-09
 
 Alpha:                 0.19532     0.81920     2.85917     9.50073    35.69989   197.79328
 Coeff:                 0.27070     0.30552     0.18297     0.10986     0.06810     0.04224
 

 Symmetry turned off. Reference energy:       -263.769649989860

 All pairs explicitly correlated. Number of r12-pairs:           78
 
 AO(A)-basis ORBITAL           loaded. Number of functions:     230
 RI(R)-basis CC-PVTZ/JKFIT     loaded. Number of functions:     376
 DF-basis CC-PVTZ/JKFIT        loaded. Number of functions:     376

 Screening thresholds:   THRAO=  1.00D-10  THRMO=  1.00D-09  THRPROD=  1.00D-09
                         THRSW=  1.00D-05  THROV=  1.00D-12  THRF12=   1.00D-08

 CPU time for Fock operators                      0.77 sec
 
 Construction of ABS:
 Smallest eigenvalue of S          2.57E-04  (threshold= 1.00E-08)
 Ratio eigmin/eigmax               1.83E-06  (threshold= 1.00E-09)
 Smallest eigenvalue of S kept     2.57E-04  (threshold= 2.57E-04, 0 functions deleted, 376 kept)
 
 Construction of CABS:
 Smallest eigenvalue of S          2.30E-08  (threshold= 1.00E-08)
 Ratio eigmin/eigmax               2.30E-08  (threshold= 1.00E-09)
 Smallest eigenvalue of S kept     2.30E-08  (threshold= 2.30E-08, 0 functions deleted, 376 kept)
 
 CPU time for CABS singles                        0.14 sec

 CABS-singles contribution of  -0.01592271 patched into reference energy.
 New reference energy        -263.78557270
 
 AO(A)-basis ORBITAL           loaded. Number of functions:     230
 RI(R)-basis CC-PVTZ/JKFIT     loaded. Number of functions:     376
 DF-basis AUG-CC-PVTZ/MP2FIT   loaded. Number of functions:     516

 Screening thresholds:   THRAO=  1.00D-10  THRMO=  1.00D-09  THRPROD=  1.00D-09
                         THRSW=  1.00D-05  THROV=  1.00D-12  THRF12=   1.00D-08

 CPU time for 3-index integral evaluation         1.68 sec
 CPU time for first  half transformation          0.14 sec (18156.3 MFLOP/sec)
 CPU time for second half transformation          0.03 sec ( 3309.7 MFLOP/sec)
 CPU time for sorting                             0.12 sec
 CPU time for fitting                             0.04 sec (34826.3 MFLOP/sec)
 CPU time for tilde quantities                    0.04 sec (46222.0 MFLOP/sec)
 CPU time for assembly                            0.70 sec (33754.8 MFLOP/sec)
 CPU time for tranop_f12                          0.78 sec (38589.8 MFLOP/sec)
 CPU time for f12 integrals (total)               5.28 sec
 F12-matrices built in  3 passes.
 F12-matrices built in  3 passes.
 F12-matrices built in  3 passes.
 F12-matrices built in  3 passes.
 FC-matrix built in  3 passes.
 CPU time for f12 matrices (total)                0.42 sec

 Diagonal F12 approximation with fixed coefficients:  TSING= 0.500,  TTRIP= 0.250 (scaled by -1/beta)

 DF-MP2-F12 energy corrections:
 ------------------------------
 Approx.                                    Singlet             Triplet             Total
 DF-MP2-F12/3*C(DX,FIX)                -0.097450913544     -0.016933729704     -0.114384643249
 DF-MP2-F12/3*C(FIX)                   -0.079867746943     -0.013395835266     -0.093263582209
 DF-MP2-F12/3C(FIX)                    -0.080228268987     -0.013418958098     -0.093647227085

 DF-MP2-F12 correlation energies:
 --------------------------------
 Approx.                                    Singlet             Triplet             Ecorr            Total Energy
 DF-MP2                                -0.537709446960     -0.343060561512     -0.880770008472   -264.666342705219
 DF-MP2-F12/3*C(DX,FIX)                -0.635160360504     -0.359994291216     -0.995154651720   -264.780727348467
 DF-MP2-F12/3*C(FIX)                   -0.617577193903     -0.356456396778     -0.974033590681   -264.759606287428
 DF-MP2-F12/3C(FIX)                    -0.617937715947     -0.356479519610     -0.974417235556   -264.759989932303

 SCS-DF-MP2 energies (F_SING= 1.20000  F_TRIP= 0.62222  F_PARALLEL= 0.33333):
 ----------------------------------------------------------------------------
 SCS-DF-MP2                            -0.858711241293   -264.644283938040
 SCS-DF-MP2-F12/3*C(DX,FIX)            -0.986188880473   -264.771761577220
 SCS-DF-MP2-F12/3*C(FIX)               -0.962887724012   -264.748460420759
 SCS-DF-MP2-F12/3C(FIX)                -0.963334738004   -264.748907434751

 Symmetry restored.
 Symmetry transformation completed.

 Number of N-1 electron functions:              12
 Number of N-2 electron functions:              78
 Number of singly external CSFs:              1476
 Number of doubly external CSFs:           1686804
 Total number of CSFs:                     1688281

 Pair and operator lists are different

 Length of J-op  integral file:             466.42 MB
 Length of K-op  integral file:             526.62 MB
 Length of 3-ext integral record:             0.00 MB

 Memory could be reduced to 76.61 Mwords without degradation in triples

 Integral transformation finished. Total CPU:   3.36 sec, npass=  1  Memory used:  24.61 MW

 Reference energy:                   -263.78557270

 Adding F12 terms to K(Cij), methodcc=6,  factor=1.0

 ITER.      SQ.NORM     CORR.ENERGY   TOTAL ENERGY   ENERGY CHANGE        DEN1      VAR(S)    VAR(P)  DIIS     TIME
   1      1.20213234    -0.86272791  -264.64830061     0.01805856     0.04668264  0.72D-02  0.56D-02  1  1    12.53
   2      1.21644154    -0.85850338  -264.64407607     0.00422454    -0.02014777  0.86D-04  0.59D-03  2  2    14.80
   3      1.22180128    -0.85859988  -264.64417258    -0.00009651    -0.00236386  0.13D-03  0.32D-04  3  3    17.07
   4      1.22460272    -0.85847212  -264.64404482     0.00012776    -0.00141114  0.76D-05  0.41D-05  4  4    19.36
   5      1.22563252    -0.85843445  -264.64400715     0.00003768    -0.00036628  0.56D-06  0.29D-06  5  5    21.70
   6      1.22579469    -0.85840759  -264.64398028     0.00002686    -0.00000805  0.40D-07  0.24D-07  6  6    24.00
   7      1.22582404    -0.85840517  -264.64397786     0.00000242    -0.00000621  0.25D-08  0.40D-08  6  4    26.31
   8      1.22582434    -0.85840468  -264.64397737     0.00000049     0.00000195  0.39D-09  0.27D-09  6  1    28.61
   9      1.22582495    -0.85840474  -264.64397744    -0.00000007     0.00000056  0.26D-10  0.21D-10  6  2    30.91

 Norm of t1 vector:      0.10595251      S-energy:    -0.00000002      T1 diagnostic:  0.01529293
                                                                       D1 diagnostic:  0.04495676

 Adding energy correction from Wij-K(Fij), methodcc=6  factor=1.0
 
  CCSD correlation energy              -0.858404742868
  MP2-F12 correction (uncoupled)       -0.092491051642
  C*T doubles correction               -0.001475212325
  f12b correction                       0.015407020155


 Total CPU time for triples:     66.31 sec


 RESULTS
 =======

  Reference energy                   -263.769649989860
  F12 singles correction               -0.015922706887

 F12 singles corrections added to reference energy

  New reference energy               -263.785572696747

  F12a singlet correction              -0.080428522822
  F12a triplet correction              -0.013537741146
  F12a total correction                -0.093966263967

 F12a corrections for ansatz F12/3C(FIX) added to CCSD energy
 
  CCSD-F12a singlet pair energy        -0.641875062423
  CCSD-F12a triplet pair energy        -0.310495919602
  CCSD-F12a correlation energy         -0.952371006835

  Triples (T) contribution             -0.037635537570
  Total correlation energy             -0.990006544405

  CCSD-F12a total energy             -264.737943703582
  CCSD[T]-F12a energy                -264.778122000309
  CCSD-T-F12a energy                 -264.774642082131
 !CCSD(T)-F12a total energy          -264.775579241151

 F12b corrections for ansatz F12/3C(FIX) added to CCSD(T)-F12a energy

  CCSD-F12b singlet pair energy        -0.627691407246
  CCSD-F12b triplet pair energy        -0.309272554624
  CCSD-F12b correlation energy         -0.936963986680

  Triples (T) contribution             -0.037635537570
  Total correlation energy             -0.974599524250

  CCSD-F12b total energy             -264.722536683427
  CCSD[T]-F12b energy                -264.762714980155
  CCSD-T-F12b energy                 -264.759235061976
 !CCSD(T)-F12b total energy          -264.760172220997

 Timing summary (sec):

 STEP                 CPU(USER)    SYS     CPU(TOT)    WALL
 Transformation          3.39      0.46      3.85      3.86
 CCSD iterations        20.56      1.29     21.85     21.87
 Triples                66.31      1.33     67.64     67.61
 MP2-F12                 6.98      1.00      7.98      7.97
 F12b energy             1.50      0.01      1.51      1.52

 Program statistics:

 Available memory in ccsd:                99998934
 Min. memory needed in ccsd:               4458306
 Max. memory used in ccsd:                 5958390
 Max. memory used in cckext:               6352469 (10 integral passes)



 **********************************************************************************************************************************
 DATASETS  * FILE   NREC   LENGTH (MB)   RECORD NAMES
              1      20      269.66       500      610      700      900      950      970     1000      129      960     1100   
                                          VAR    BASINP    GEOM    SYMINP    ZMAT    AOBASIS   BASIS     P2S    ABASIS      S 
                                         1400     1410     1200     1210     1080     1600     1650     1700      960(1)  1380   
                                           T        V       H0       H01     AOSYM     SMH    MOLCAS    OPER    ABASIS    JKOP   

              2       5        1.55       700     1000     2100     7360     7350   
                                         GEOM     BASIS     RHF    F12ABS    EF12   

 PROGRAMS   *        TOTAL   CCSD(T)        HF       INT
 CPU TIMES  *       107.33     98.94      3.22      5.09
 REAL TIME  *       112.22 SEC
 DISK USED  *         1.73 GB      
 SF USED    *         1.53 GB      
 GA USED    *         2.40 MB       (max)       0.00 MB       (current)
 **********************************************************************************************************************************

     CCSD(T)-F12        HF-SCF  
   -264.76017222   -263.76964999
 **********************************************************************************************************************************
 Variable memory released
