
 Primary working directories    : /scratch/kee
 Secondary working directories  : /scratch/kee
 Wavefunction directory         : /home/kee/wfu/
 Main file repository           : /scratch/kee/

 ARCHNAME  : Linux/x86_64
 FC        : /opt/intel/composer_xe_2015.0.090/bin/intel64/ifort
 FCVERSION : 15.0.0
 BLASLIB   : -L/opt/intel/mkl/lib/intel64 -lmkl_intel_ilp64 -lmkl_sequential -lmkl_core
 id        : emory

 Nodes     nprocs
 node23       3
 Number of processes for MPI-2 version of Molpro:   nprocs(total)=    4   nprocs(compute)=    3   nprocs(helper)=    1
 ga_uses_ma=false, calling ma_init with nominal heap.
 GA-space will be limited to   8.0 MW (determined by -G option)

 Using customized tuning parameters: mindgm=7; mindgv=32; mindgc=1; mindgr=1; noblas=0; mincuda=1000; minvec=7
 default implementation of scratch files=sf  

 ***,co2h2o
 memory,100,m
 basis avtz
 geomtype = xyz
 geometry = {
 6
    -264.76489694
 O     0.82869278    1.16169550    0.00000000
 O     0.82658011   -1.16233555    0.00000000
 O    -6.09123428    0.00240602    0.00000000
 H    -6.67486729    0.76300067    0.00000000
 H    -6.67459918   -0.75839590    0.00000000
 C     0.80876519   -0.00029961    0.00000000
 }
 hf
 ccsd(t)-f12
 ---

 Variables initialized (665), CPU time= 0.00 sec
 Commands  initialized (462), CPU time= 0.01 sec, 486 directives.
 Default parameters read. Elapsed time= 0.04 sec

 Checking input...
 Passed
1


                                         ***  PROGRAM SYSTEM MOLPRO  ***
                         Copyright, University College Cardiff Consultants Limited, 2008

                                    Version 2010.1 linked 9 Dec 2014 15:06:28 


 **********************************************************************************************************************************
 LABEL *   co2h2o                                                                        
 Linux-2.6.32-504.el6.x86_64/node23(x86_64) 64 bit mpp version                           DATE: 12-Dec-16          TIME: 18:10:26  
 **********************************************************************************************************************************

 Patch level:      19
 **********************************************************************************************************************************

 Variable memory set to  100000000 words,  buffer space   230000 words

 SETTING BASIS          =    AVTZ
 SETTING GEOMTYPE       =    XYZ

Geometry recognized as XYZ



 Recomputing integrals since basis changed


 Using spherical harmonics

 Library entry O      S aug-cc-pVTZ          selected for orbital group  1
 Library entry O      P aug-cc-pVTZ          selected for orbital group  1
 Library entry O      D aug-cc-pVTZ          selected for orbital group  1
 Library entry O      F aug-cc-pVTZ          selected for orbital group  1
 Library entry H      S aug-cc-pVTZ          selected for orbital group  2
 Library entry H      P aug-cc-pVTZ          selected for orbital group  2
 Library entry H      D aug-cc-pVTZ          selected for orbital group  2
 Library entry C      S aug-cc-pVTZ          selected for orbital group  3
 Library entry C      P aug-cc-pVTZ          selected for orbital group  3
 Library entry C      D aug-cc-pVTZ          selected for orbital group  3
 Library entry C      F aug-cc-pVTZ          selected for orbital group  3

1PROGRAM * SEWARD (Integral evaluation for generally contracted gaussian basis sets)     Author: Roland Lindh, 1990

 Geometry written to block  1 of record 700


 Point group  Cs  



 ATOMIC COORDINATES

 NR  ATOM    CHARGE       X              Y              Z

   1  O       8.00    1.566002401    2.195286343    0.000000000
   2  O       8.00    1.562010034   -2.196495862    0.000000000
   3  O       8.00  -11.510764592    0.004546719    0.000000000
   4  H       1.00  -12.613671142    1.441862304    0.000000000
   5  H       1.00  -12.613164487   -1.433160550    0.000000000
   6  C       6.00    1.528344714   -0.000566181    0.000000000

 Bond lengths in Bohr (Angstrom)

 1-6  2.196175405  2-6  2.196187724  3-4  1.811706088  3-5  1.811708509
     (1.162165971)     (1.162172490)     (0.958713571)     (0.958714852)

 Bond angles

  1-6-2  178.13918425   4-3-5  105.01947441

 NUCLEAR CHARGE:                   32
 NUMBER OF PRIMITIVE AOS:         322
 NUMBER OF SYMMETRY AOS:          282
 NUMBER OF CONTRACTIONS:          230   ( 152A'  +  78A"  )
 NUMBER OF CORE ORBITALS:           4   (   4A'  +   0A"  )
 NUMBER OF VALENCE ORBITALS:       18   (  14A'  +   4A"  )


 NUCLEAR REPULSION ENERGY   83.86440098


 Eigenvalues of metric

         1 0.349E-03 0.374E-03 0.393E-03 0.396E-03 0.900E-03 0.922E-03 0.166E-02 0.175E-02
         2 0.318E-02 0.348E-02 0.593E-02 0.124E-01 0.136E-01 0.294E-01 0.296E-01 0.317E-01


 Contracted 2-electron integrals neglected if value below      1.0D-11
 AO integral compression algorithm  1   Integral accuracy      1.0D-11

     345.244 MB (compressed) written to integral file ( 23.5%)

     Node minimum: 107.741 MB, node maximum: 126.616 MB


 NUMBER OF SORTED TWO-ELECTRON INTEGRALS:   59950380.     BUFFER LENGTH:  32768
 NUMBER OF SEGMENTS:   4  SEGMENT LENGTH:   15995235      RECORD LENGTH: 524288

 Memory used in sort:      16.55 MW

 SORT1 READ   183522057. AND WROTE    24696247. INTEGRALS IN     73 RECORDS. CPU TIME:     1.73 SEC, REAL TIME:     1.96 SEC
 SORT2 READ    74329047. AND WROTE   179836431. INTEGRALS IN   1449 RECORDS. CPU TIME:     0.68 SEC, REAL TIME:     0.85 SEC

 Node minimum:    59940574.  Node maximum:    59950380. integrals

 OPERATOR DM      FOR CENTER  0  COORDINATES:    0.000000    0.000000    0.000000


 **********************************************************************************************************************************
 DATASETS  * FILE   NREC   LENGTH (MB)   RECORD NAMES
              1      18        3.74       500      610      700      900      950      970     1000      129      960     1100   
                                          VAR    BASINP    GEOM    SYMINP    ZMAT    AOBASIS   BASIS     P2S    ABASIS      S 
                                         1400     1410     1200     1210     1080     1600     1650     1700   
                                           T        V       H0       H01     AOSYM     SMH    MOLCAS    OPER   

 PROGRAMS   *        TOTAL       INT
 CPU TIMES  *         5.05      4.98
 REAL TIME  *         5.64 SEC
 DISK USED  *         1.24 GB      
 GA USED    *         0.00 MB       (max)       0.00 MB       (current)
 **********************************************************************************************************************************

1PROGRAM * RHF-SCF (CLOSED SHELL)       Authors: W. Meyer, H.-J. Werner


 NUMBER OF ELECTRONS:      16+   16-
 CONVERGENCE THRESHOLDS:    1.00E-05 (Density)    1.00E-07 (Energy)
 MAX. NUMBER OF ITERATIONS:       60
 INTERPOLATION TYPE:            DIIS
 INTERPOLATION STEPS:              2 (START)      1 (STEP)
 LEVEL SHIFTS:                  0.00 (CLOSED)  0.00 (OPEN) 



 Orbital guess generated from atomic densities. Full valence occupancy:   18   4

 Molecular orbital dump at record        2100.2

 Initial alpha occupancy:  13   3
 Initial beta  occupancy:  13   3
 Wave function symmetry:    1

 ITERATION    DDIFF          GRAD             ENERGY        2-EL.EN.            DIPOLE MOMENTS         DIIS
    1      0.000D+00      0.000D+00      -263.66063931    363.384676   -1.18422   -0.00012    0.00000    0
    2      0.000D+00      0.629D-02      -263.72584576    358.774882   -0.69191   -0.00010    0.00000    1
    3      0.101D-01      0.427D-02      -263.76906095    361.340858   -0.81427   -0.00009    0.00000    2
    4      0.415D-02      0.402D-03      -263.76955598    361.129510   -0.81753   -0.00009    0.00000    3
    5      0.485D-03      0.117D-03      -263.76961397    361.131251   -0.81217   -0.00009    0.00000    4
    6      0.181D-03      0.472D-04      -263.76962114    361.145805   -0.81285   -0.00009    0.00000    5
    7      0.604D-04      0.115D-04      -263.76962187    361.137432   -0.81240   -0.00009    0.00000    6
    8      0.197D-04      0.254D-05      -263.76962192    361.138734   -0.81241   -0.00009    0.00000    7
    9      0.541D-05      0.851D-06      -263.76962192    361.138540   -0.81238   -0.00009    0.00000    0

 Final occupancy:  13   3

 !RHF STATE 1.1 Energy               -263.769621922570
 Nuclear energy                        83.86440098
 One-electron energy                 -528.20329274
 Two-electron energy                  180.56926984
 Virial quotient                       -1.00183005
 !RHF STATE 1.1 Dipole moment          -0.81238198    -0.00009153     0.00000000
 Dipole moment /Debye                  -2.06473380    -0.00023262     0.00000000

 Orbital energies:

         1.1          2.1          3.1          4.1          5.1          6.1          7.1          8.1          9.1         10.1
    -20.649157   -20.649112   -20.568187   -11.457967    -1.526820    -1.473727    -1.353437    -0.797095    -0.739357    -0.718968

        11.1         12.1         13.1         14.1         15.1
     -0.710824    -0.584714    -0.540493     0.028259     0.047039

         1.2          2.2          3.2          4.2          5.2
     -0.710900    -0.540548    -0.511070     0.076430     0.157930


 **********************************************************************************************************************************
 DATASETS  * FILE   NREC   LENGTH (MB)   RECORD NAMES
              1      18        3.76       500      610      700      900      950      970     1000      129      960     1100   
                                          VAR    BASINP    GEOM    SYMINP    ZMAT    AOBASIS   BASIS     P2S    ABASIS      S 
                                         1400     1410     1200     1210     1080     1600     1650     1700   
                                           T        V       H0       H01     AOSYM     SMH    MOLCAS    OPER   

              2       3        0.96       700     1000     2100   
                                         GEOM     BASIS     RHF  

 PROGRAMS   *        TOTAL        HF       INT
 CPU TIMES  *         8.18      3.12      4.98
 REAL TIME  *         8.93 SEC
 DISK USED  *         1.26 GB      
 SF USED    *         0.12 MB      
 GA USED    *         0.00 MB       (max)       0.00 MB       (current)
 **********************************************************************************************************************************


1PROGRAM * CCSD (Closed-shell coupled cluster)     Authors: C. Hampel, H.-J. Werner, 1991, M. Deegan, P.J. Knowles, 1992

                                  CCSD-F12 implementation by  H.-J. Werner, 2007

                   Density fitting integral evaluation by F.R. Manby, 2003,2007, G. Knizia, 2010

 Basis set CC-PVTZ/JKFIT generated.      Number of basis functions:   376 
 Basis set AUG-CC-PVTZ/MP2FIT generated. Number of basis functions:   516 

 Convergence thresholds:  THRVAR = 1.00D-08  THRDEN = 1.00D-06

 CCSD(T)     terms to be evaluated (factor= 1.000)


 Number of core orbitals:           4 (   4   0 )
 Number of closed-shell orbitals:  12 (   9   3 )
 Number of external orbitals:     214 ( 139  75 )

 Molecular orbitals read from record     2100.2  Type=RHF/CANONICAL (state 1.1)

 MP2-F12 correlation treatment (H.-J. Werner, 2006)
 --------------------------------------------------

 Using MP2-F12 with ansatz 3C(FIX)

 Using projected zeroth-order Hamiltonian (+Z)

 FOCKRIB=T FOCKRIC=T FOCKRIP=T CABSP=T CABSA=T CABSK=T CABSF=T GBC=F EBC=F DMAT=T NOFIK=T NOPAO=1 SOLVE=-1  USEPAO=0
 EXCH_A= T EXCH_B= F EXCH_C= F EXCH_P= F
 
 Geminal basis:    OPTFULL  GEM_TYPE=SLATER  BETA=1.0  NGEM=6

 Optimizing Gaussian exponents for each gem_beta

 Geminal optimization for beta= 1.0000
 Weight function:   m=0, omega= 1.4646

 Augmented Hessian optimization of geminal fit. Trust ratio= 0.40000
 Convergence reached after   2 iterations. Final gradient= 8.24D-16, Step= 4.32D-06, Delta= 1.28D-09
 
 Alpha:                 0.19532     0.81920     2.85917     9.50073    35.69989   197.79328
 Coeff:                 0.27070     0.30552     0.18297     0.10986     0.06810     0.04224
 

 Symmetry turned off. Reference energy:       -263.769621922570

 All pairs explicitly correlated. Number of r12-pairs:           78
 
 AO(A)-basis ORBITAL           loaded. Number of functions:     230
 RI(R)-basis CC-PVTZ/JKFIT     loaded. Number of functions:     376
 DF-basis CC-PVTZ/JKFIT        loaded. Number of functions:     376

 Screening thresholds:   THRAO=  1.00D-10  THRMO=  1.00D-09  THRPROD=  1.00D-09
                         THRSW=  1.00D-05  THROV=  1.00D-12  THRF12=   1.00D-08

 CPU time for Fock operators                      0.80 sec
 
 Construction of ABS:
 Smallest eigenvalue of S          2.57E-04  (threshold= 1.00E-08)
 Ratio eigmin/eigmax               1.83E-06  (threshold= 1.00E-09)
 Smallest eigenvalue of S kept     2.57E-04  (threshold= 2.57E-04, 0 functions deleted, 376 kept)
 
 Construction of CABS:
 Smallest eigenvalue of S          2.30E-08  (threshold= 1.00E-08)
 Ratio eigmin/eigmax               2.30E-08  (threshold= 1.00E-09)
 Smallest eigenvalue of S kept     2.30E-08  (threshold= 2.30E-08, 0 functions deleted, 376 kept)
 
 CPU time for CABS singles                        0.15 sec

 CABS-singles contribution of  -0.01592299 patched into reference energy.
 New reference energy        -263.78554491
 
 AO(A)-basis ORBITAL           loaded. Number of functions:     230
 RI(R)-basis CC-PVTZ/JKFIT     loaded. Number of functions:     376
 DF-basis AUG-CC-PVTZ/MP2FIT   loaded. Number of functions:     516

 Screening thresholds:   THRAO=  1.00D-10  THRMO=  1.00D-09  THRPROD=  1.00D-09
                         THRSW=  1.00D-05  THROV=  1.00D-12  THRF12=   1.00D-08

 CPU time for 3-index integral evaluation         1.60 sec
 CPU time for first  half transformation          0.21 sec (12400.7 MFLOP/sec)
 CPU time for second half transformation          0.01 sec ( 9686.2 MFLOP/sec)
 CPU time for sorting                             0.10 sec
 CPU time for fitting                             0.04 sec (34826.3 MFLOP/sec)
 CPU time for tilde quantities                    0.04 sec (46222.0 MFLOP/sec)
 CPU time for assembly                            0.71 sec (33276.4 MFLOP/sec)
 CPU time for tranop_f12                          0.77 sec (38811.5 MFLOP/sec)
 CPU time for f12 integrals (total)               5.30 sec
 F12-matrices built in  3 passes.
 F12-matrices built in  3 passes.
 F12-matrices built in  3 passes.
 F12-matrices built in  3 passes.
 FC-matrix built in  3 passes.
 CPU time for f12 matrices (total)                0.43 sec

 Diagonal F12 approximation with fixed coefficients:  TSING= 0.500,  TTRIP= 0.250 (scaled by -1/beta)

 DF-MP2-F12 energy corrections:
 ------------------------------
 Approx.                                    Singlet             Triplet             Total
 DF-MP2-F12/3*C(DX,FIX)                -0.097451398167     -0.016933829325     -0.114385227493
 DF-MP2-F12/3*C(FIX)                   -0.079868097947     -0.013395939139     -0.093264037086
 DF-MP2-F12/3C(FIX)                    -0.080228646272     -0.013419065551     -0.093647711823

 DF-MP2-F12 correlation energies:
 --------------------------------
 Approx.                                    Singlet             Triplet             Ecorr            Total Energy
 DF-MP2                                -0.537711737176     -0.343061193620     -0.880772930796   -264.666317839778
 DF-MP2-F12/3*C(DX,FIX)                -0.635163135343     -0.359995022946     -0.995158158289   -264.780703067271
 DF-MP2-F12/3*C(FIX)                   -0.617579835123     -0.356457132759     -0.974036967882   -264.759581876864
 DF-MP2-F12/3C(FIX)                    -0.617940383448     -0.356480259171     -0.974420642619   -264.759965551601

 SCS-DF-MP2 energies (F_SING= 1.20000  F_TRIP= 0.62222  F_PARALLEL= 0.33333):
 ----------------------------------------------------------------------------
 SCS-DF-MP2                            -0.858714382864   -264.644259291845
 SCS-DF-MP2-F12/3*C(DX,FIX)            -0.986192665578   -264.771737574560
 SCS-DF-MP2-F12/3*C(FIX)               -0.962891351420   -264.748436260401
 SCS-DF-MP2-F12/3C(FIX)                -0.963338399178   -264.748883308159

 Symmetry restored.
 Symmetry transformation completed.

 Number of N-1 electron functions:              12
 Number of N-2 electron functions:              78
 Number of singly external CSFs:              1476
 Number of doubly external CSFs:           1686804
 Total number of CSFs:                     1688281

 Pair and operator lists are different

 Length of J-op  integral file:             466.42 MB
 Length of K-op  integral file:             526.62 MB
 Length of 3-ext integral record:             0.00 MB

 Memory could be reduced to 76.61 Mwords without degradation in triples

 Integral transformation finished. Total CPU:   3.40 sec, npass=  1  Memory used:  24.61 MW

 Reference energy:                   -263.78554491

 Adding F12 terms to K(Cij), methodcc=6,  factor=1.0

 ITER.      SQ.NORM     CORR.ENERGY   TOTAL ENERGY   ENERGY CHANGE        DEN1      VAR(S)    VAR(P)  DIIS     TIME
   1      1.20213446    -0.86273010  -264.64827500     0.01805931     0.04668462  0.72D-02  0.56D-02  1  1    12.61
   2      1.21644413    -0.85850514  -264.64405005     0.00422495    -0.02014848  0.86D-04  0.59D-03  2  2    14.85
   3      1.22180390    -0.85860158  -264.64414649    -0.00009644    -0.00236385  0.13D-03  0.32D-04  3  3    17.12
   4      1.22460536    -0.85847380  -264.64401871     0.00012777    -0.00141115  0.76D-05  0.41D-05  4  4    19.39
   5      1.22563517    -0.85843612  -264.64398103     0.00003768    -0.00036630  0.56D-06  0.29D-06  5  5    21.67
   6      1.22579735    -0.85840926  -264.64395417     0.00002686    -0.00000805  0.40D-07  0.24D-07  6  6    24.06
   7      1.22582670    -0.85840684  -264.64395175     0.00000242    -0.00000621  0.25D-08  0.40D-08  6  4    26.34
   8      1.22582700    -0.85840635  -264.64395126     0.00000049     0.00000195  0.39D-09  0.27D-09  6  1    28.61
   9      1.22582761    -0.85840642  -264.64395133    -0.00000007     0.00000056  0.26D-10  0.21D-10  6  2    30.92

 Norm of t1 vector:      0.10595297      S-energy:    -0.00000002      T1 diagnostic:  0.01529299
                                                                       D1 diagnostic:  0.04495476

 Adding energy correction from Wij-K(Fij), methodcc=6  factor=1.0
 
  CCSD correlation energy              -0.858406418285
  MP2-F12 correction (uncoupled)       -0.092491382686
  C*T doubles correction               -0.001475301466
  f12b correction                       0.015407059337


 Total CPU time for triples:     66.44 sec


 RESULTS
 =======

  Reference energy                   -263.769621922570
  F12 singles correction               -0.015922986412

 F12 singles corrections added to reference energy

  New reference energy               -263.785544908982

  F12a singlet correction              -0.080428849322
  F12a triplet correction              -0.013537834829
  F12a total correction                -0.093966684151

 F12a corrections for ansatz F12/3C(FIX) added to CCSD energy
 
  CCSD-F12a singlet pair energy        -0.641877705902
  CCSD-F12a triplet pair energy        -0.310495371782
  CCSD-F12a correlation energy         -0.952373102436

  Triples (T) contribution             -0.037635857939
  Total correlation energy             -0.990008960375

  CCSD-F12a total energy             -264.737918011418
  CCSD[T]-F12a energy                -264.778096755963
  CCSD-T-F12a energy                 -264.774616644223
 !CCSD(T)-F12a total energy          -264.775553869356

 F12b corrections for ansatz F12/3C(FIX) added to CCSD(T)-F12a energy

  CCSD-F12b singlet pair energy        -0.627694009407
  CCSD-F12b triplet pair energy        -0.309272008940
  CCSD-F12b correlation energy         -0.936966043099

  Triples (T) contribution             -0.037635857939
  Total correlation energy             -0.974601901037

  CCSD-F12b total energy             -264.722510952080
  CCSD[T]-F12b energy                -264.762689696625
  CCSD-T-F12b energy                 -264.759209584886
 !CCSD(T)-F12b total energy          -264.760146810019

 Timing summary (sec):

 STEP                 CPU(USER)    SYS     CPU(TOT)    WALL
 Transformation          3.43      0.48      3.91      3.90
 CCSD iterations        20.44      1.31     21.75     21.77
 Triples                66.44      1.42     67.86     67.82
 MP2-F12                 7.05      0.98      8.03      8.04
 F12b energy             1.45      0.01      1.46      1.46

 Program statistics:

 Available memory in ccsd:                99998934
 Min. memory needed in ccsd:               4458306
 Max. memory used in ccsd:                 5958390
 Max. memory used in cckext:               6352469 (10 integral passes)



 **********************************************************************************************************************************
 DATASETS  * FILE   NREC   LENGTH (MB)   RECORD NAMES
              1      20      269.66       500      610      700      900      950      970     1000      129      960     1100   
                                          VAR    BASINP    GEOM    SYMINP    ZMAT    AOBASIS   BASIS     P2S    ABASIS      S 
                                         1400     1410     1200     1210     1080     1600     1650     1700      960(1)  1380   
                                           T        V       H0       H01     AOSYM     SMH    MOLCAS    OPER    ABASIS    JKOP   

              2       5        1.55       700     1000     2100     7360     7350   
                                         GEOM     BASIS     RHF    F12ABS    EF12   

 PROGRAMS   *        TOTAL   CCSD(T)        HF       INT
 CPU TIMES  *       107.01     98.84      3.12      4.98
 REAL TIME  *       112.20 SEC
 DISK USED  *         1.70 GB      
 SF USED    *         1.53 GB      
 GA USED    *         2.40 MB       (max)       0.00 MB       (current)
 **********************************************************************************************************************************

     CCSD(T)-F12        HF-SCF  
   -264.76014681   -263.76962192
 **********************************************************************************************************************************
 Variable memory released
