
 Primary working directories    : /scratch/kee
 Secondary working directories  : /scratch/kee
 Wavefunction directory         : /home/kee/wfu/
 Main file repository           : /scratch/kee/

 ARCHNAME  : Linux/x86_64
 FC        : /opt/intel/composer_xe_2015.0.090/bin/intel64/ifort
 FCVERSION : 15.0.0
 BLASLIB   : -L/opt/intel/mkl/lib/intel64 -lmkl_intel_ilp64 -lmkl_sequential -lmkl_core
 id        : emory

 Nodes     nprocs
 node18       3
 Number of processes for MPI-2 version of Molpro:   nprocs(total)=    4   nprocs(compute)=    3   nprocs(helper)=    1
 ga_uses_ma=false, calling ma_init with nominal heap.
 GA-space will be limited to   8.0 MW (determined by -G option)

 Using customized tuning parameters: mindgm=7; mindgv=32; mindgc=1; mindgr=1; noblas=0; mincuda=1000; minvec=7
 default implementation of scratch files=sf  

 ***,co2h2o
 memory,100,m
 basis avtz
 geomtype = xyz
 geometry = {
 6
    -264.76489694
 O     0.82869278    1.16169550    0.00000000
 O     0.82658011   -1.16233555    0.00000000
 O    -3.54123448    0.00140611    0.00000000
 H    -4.12486749    0.76200076    0.00000000
 H    -4.12459938   -0.75939581    0.00000000
 C     0.80876519   -0.00029961    0.00000000
 }
 hf
 ccsd(t)-f12
 ---

 Variables initialized (665), CPU time= 0.00 sec
 Commands  initialized (462), CPU time= 0.01 sec, 486 directives.
 Default parameters read. Elapsed time= 0.04 sec

 Checking input...
 Passed
1


                                         ***  PROGRAM SYSTEM MOLPRO  ***
                         Copyright, University College Cardiff Consultants Limited, 2008

                                    Version 2010.1 linked 9 Dec 2014 15:06:28 


 **********************************************************************************************************************************
 LABEL *   co2h2o                                                                        
 Linux-2.6.32-504.el6.x86_64/node18(x86_64) 64 bit mpp version                           DATE: 11-Dec-16          TIME: 23:09:05  
 **********************************************************************************************************************************

 Patch level:      19
 **********************************************************************************************************************************

 Variable memory set to  100000000 words,  buffer space   230000 words

 SETTING BASIS          =    AVTZ
 SETTING GEOMTYPE       =    XYZ

Geometry recognized as XYZ



 Recomputing integrals since basis changed


 Using spherical harmonics

 Library entry O      S aug-cc-pVTZ          selected for orbital group  1
 Library entry O      P aug-cc-pVTZ          selected for orbital group  1
 Library entry O      D aug-cc-pVTZ          selected for orbital group  1
 Library entry O      F aug-cc-pVTZ          selected for orbital group  1
 Library entry H      S aug-cc-pVTZ          selected for orbital group  2
 Library entry H      P aug-cc-pVTZ          selected for orbital group  2
 Library entry H      D aug-cc-pVTZ          selected for orbital group  2
 Library entry C      S aug-cc-pVTZ          selected for orbital group  3
 Library entry C      P aug-cc-pVTZ          selected for orbital group  3
 Library entry C      D aug-cc-pVTZ          selected for orbital group  3
 Library entry C      F aug-cc-pVTZ          selected for orbital group  3

1PROGRAM * SEWARD (Integral evaluation for generally contracted gaussian basis sets)     Author: Roland Lindh, 1990

 Geometry written to block  1 of record 700


 Point group  Cs  



 ATOMIC COORDINATES

 NR  ATOM    CHARGE       X              Y              Z

   1  O       8.00    1.566002401    2.195286343    0.000000000
   2  O       8.00    1.562010034   -2.196495862    0.000000000
   3  O       8.00   -6.691963334    0.002657163    0.000000000
   4  H       1.00   -7.794869885    1.439972748    0.000000000
   5  H       1.00   -7.794363230   -1.435050106    0.000000000
   6  C       6.00    1.528344714   -0.000566181    0.000000000

 Bond lengths in Bohr (Angstrom)

 1-6  2.196175405  2-6  2.196187724  3-4  1.811706088  3-5  1.811708509
     (1.162165971)     (1.162172490)     (0.958713571)     (0.958714852)

 Bond angles

  1-6-2  178.13918425   4-3-5  105.01947441

 NUCLEAR CHARGE:                   32
 NUMBER OF PRIMITIVE AOS:         322
 NUMBER OF SYMMETRY AOS:          282
 NUMBER OF CONTRACTIONS:          230   ( 152A'  +  78A"  )
 NUMBER OF CORE ORBITALS:           4   (   4A'  +   0A"  )
 NUMBER OF VALENCE ORBITALS:       18   (  14A'  +   4A"  )


 NUCLEAR REPULSION ENERGY   92.85631260


 Eigenvalues of metric

         1 0.340E-03 0.362E-03 0.369E-03 0.378E-03 0.896E-03 0.920E-03 0.158E-02 0.162E-02
         2 0.317E-02 0.348E-02 0.569E-02 0.124E-01 0.135E-01 0.281E-01 0.296E-01 0.312E-01


 Contracted 2-electron integrals neglected if value below      1.0D-11
 AO integral compression algorithm  1   Integral accuracy      1.0D-11

     535.298 MB (compressed) written to integral file ( 32.2%)

     Node minimum: 171.180 MB, node maximum: 184.025 MB


 NUMBER OF SORTED TWO-ELECTRON INTEGRALS:   59950380.     BUFFER LENGTH:  32768
 NUMBER OF SEGMENTS:   4  SEGMENT LENGTH:   15995235      RECORD LENGTH: 524288

 Memory used in sort:      16.55 MW

 SORT1 READ   207531521. AND WROTE    42092956. INTEGRALS IN    122 RECORDS. CPU TIME:     3.72 SEC, REAL TIME:     4.25 SEC
 SORT2 READ   126965340. AND WROTE   179836431. INTEGRALS IN   2106 RECORDS. CPU TIME:     1.23 SEC, REAL TIME:     1.68 SEC

 Node minimum:    59940574.  Node maximum:    59950380. integrals

 OPERATOR DM      FOR CENTER  0  COORDINATES:    0.000000    0.000000    0.000000


 **********************************************************************************************************************************
 DATASETS  * FILE   NREC   LENGTH (MB)   RECORD NAMES
              1      18        3.74       500      610      700      900      950      970     1000      129      960     1100   
                                          VAR    BASINP    GEOM    SYMINP    ZMAT    AOBASIS   BASIS     P2S    ABASIS      S 
                                         1400     1410     1200     1210     1080     1600     1650     1700   
                                           T        V       H0       H01     AOSYM     SMH    MOLCAS    OPER   

 PROGRAMS   *        TOTAL       INT
 CPU TIMES  *         9.62      9.52
 REAL TIME  *        10.83 SEC
 DISK USED  *         2.04 GB      
 GA USED    *         0.00 MB       (max)       0.00 MB       (current)
 **********************************************************************************************************************************

1PROGRAM * RHF-SCF (CLOSED SHELL)       Authors: W. Meyer, H.-J. Werner


 NUMBER OF ELECTRONS:      16+   16-
 CONVERGENCE THRESHOLDS:    1.00E-05 (Density)    1.00E-07 (Energy)
 MAX. NUMBER OF ITERATIONS:       60
 INTERPOLATION TYPE:            DIIS
 INTERPOLATION STEPS:              2 (START)      1 (STEP)
 LEVEL SHIFTS:                  0.00 (CLOSED)  0.00 (OPEN) 



 Orbital guess generated from atomic densities. Full valence occupancy:   18   4

 Molecular orbital dump at record        2100.2

 Initial alpha occupancy:  13   3
 Initial beta  occupancy:  13   3
 Wave function symmetry:    1

 ITERATION    DDIFF          GRAD             ENERGY        2-EL.EN.            DIPOLE MOMENTS         DIIS
    1      0.000D+00      0.000D+00      -263.66265891    381.650784   -1.18456   -0.00012    0.00000    0
    2      0.000D+00      0.626D-02      -263.72750441    376.957089   -0.73277   -0.00008    0.00000    1
    3      0.100D-01      0.424D-02      -263.76997564    379.522494   -0.84217   -0.00008    0.00000    2
    4      0.412D-02      0.403D-03      -263.77047074    379.316709   -0.84502   -0.00008    0.00000    3
    5      0.486D-03      0.117D-03      -263.77052880    379.315099   -0.84012   -0.00008    0.00000    4
    6      0.182D-03      0.476D-04      -263.77053606    379.330415   -0.84087   -0.00008    0.00000    5
    7      0.608D-04      0.115D-04      -263.77053679    379.321912   -0.84045   -0.00008    0.00000    6
    8      0.197D-04      0.254D-05      -263.77053683    379.323229   -0.84046   -0.00008    0.00000    7
    9      0.540D-05      0.849D-06      -263.77053684    379.323022   -0.84043   -0.00008    0.00000    0

 Final occupancy:  13   3

 !RHF STATE 1.1 Energy               -263.770536837298
 Nuclear energy                        92.85631260
 One-electron energy                 -546.28836031
 Two-electron energy                  189.66151087
 Virial quotient                       -1.00184091
 !RHF STATE 1.1 Dipole moment          -0.84043445    -0.00008002     0.00000000
 Dipole moment /Debye                  -2.13603138    -0.00020337     0.00000000

 Orbital energies:

         1.1          2.1          3.1          4.1          5.1          6.1          7.1          8.1          9.1         10.1
    -20.643262   -20.643216   -20.570840   -11.452339    -1.520923    -1.467889    -1.356100    -0.791522    -0.733862    -0.721560

        11.1         12.1         13.1         14.1         15.1
     -0.704726    -0.587849    -0.534747     0.027719     0.047362

         1.2          2.2          3.2          4.2          5.2
     -0.705103    -0.534892    -0.513840     0.080450     0.162479


 **********************************************************************************************************************************
 DATASETS  * FILE   NREC   LENGTH (MB)   RECORD NAMES
              1      18        3.76       500      610      700      900      950      970     1000      129      960     1100   
                                          VAR    BASINP    GEOM    SYMINP    ZMAT    AOBASIS   BASIS     P2S    ABASIS      S 
                                         1400     1410     1200     1210     1080     1600     1650     1700   
                                           T        V       H0       H01     AOSYM     SMH    MOLCAS    OPER   

              2       3        0.96       700     1000     2100   
                                         GEOM     BASIS     RHF  

 PROGRAMS   *        TOTAL        HF       INT
 CPU TIMES  *        14.44      4.81      9.52
 REAL TIME  *        15.95 SEC
 DISK USED  *         2.07 GB      
 SF USED    *         0.12 MB      
 GA USED    *         0.00 MB       (max)       0.00 MB       (current)
 **********************************************************************************************************************************


1PROGRAM * CCSD (Closed-shell coupled cluster)     Authors: C. Hampel, H.-J. Werner, 1991, M. Deegan, P.J. Knowles, 1992

                                  CCSD-F12 implementation by  H.-J. Werner, 2007

                   Density fitting integral evaluation by F.R. Manby, 2003,2007, G. Knizia, 2010

 Basis set CC-PVTZ/JKFIT generated.      Number of basis functions:   376 
 Basis set AUG-CC-PVTZ/MP2FIT generated. Number of basis functions:   516 

 Convergence thresholds:  THRVAR = 1.00D-08  THRDEN = 1.00D-06

 CCSD(T)     terms to be evaluated (factor= 1.000)


 Number of core orbitals:           4 (   4   0 )
 Number of closed-shell orbitals:  12 (   9   3 )
 Number of external orbitals:     214 ( 139  75 )

 Molecular orbitals read from record     2100.2  Type=RHF/CANONICAL (state 1.1)

 MP2-F12 correlation treatment (H.-J. Werner, 2006)
 --------------------------------------------------

 Using MP2-F12 with ansatz 3C(FIX)

 Using projected zeroth-order Hamiltonian (+Z)

 FOCKRIB=T FOCKRIC=T FOCKRIP=T CABSP=T CABSA=T CABSK=T CABSF=T GBC=F EBC=F DMAT=T NOFIK=T NOPAO=1 SOLVE=-1  USEPAO=0
 EXCH_A= T EXCH_B= F EXCH_C= F EXCH_P= F
 
 Geminal basis:    OPTFULL  GEM_TYPE=SLATER  BETA=1.0  NGEM=6

 Optimizing Gaussian exponents for each gem_beta

 Geminal optimization for beta= 1.0000
 Weight function:   m=0, omega= 1.4646

 Augmented Hessian optimization of geminal fit. Trust ratio= 0.40000
 Convergence reached after   2 iterations. Final gradient= 8.24D-16, Step= 4.32D-06, Delta= 1.28D-09
 
 Alpha:                 0.19532     0.81920     2.85917     9.50073    35.69989   197.79328
 Coeff:                 0.27070     0.30552     0.18297     0.10986     0.06810     0.04224
 

 Symmetry turned off. Reference energy:       -263.770536837298

 All pairs explicitly correlated. Number of r12-pairs:           78
 
 AO(A)-basis ORBITAL           loaded. Number of functions:     230
 RI(R)-basis CC-PVTZ/JKFIT     loaded. Number of functions:     376
 DF-basis CC-PVTZ/JKFIT        loaded. Number of functions:     376

 Screening thresholds:   THRAO=  1.00D-10  THRMO=  1.00D-09  THRPROD=  1.00D-09
                         THRSW=  1.00D-05  THROV=  1.00D-12  THRF12=   1.00D-08

 CPU time for Fock operators                      1.06 sec
 
 Construction of ABS:
 Smallest eigenvalue of S          2.57E-04  (threshold= 1.00E-08)
 Ratio eigmin/eigmax               1.83E-06  (threshold= 1.00E-09)
 Smallest eigenvalue of S kept     2.57E-04  (threshold= 2.57E-04, 0 functions deleted, 376 kept)
 
 Construction of CABS:
 Smallest eigenvalue of S          2.30E-08  (threshold= 1.00E-08)
 Ratio eigmin/eigmax               2.30E-08  (threshold= 1.00E-09)
 Smallest eigenvalue of S kept     2.30E-08  (threshold= 2.30E-08, 0 functions deleted, 376 kept)
 
 CPU time for CABS singles                        0.18 sec

 CABS-singles contribution of  -0.01591854 patched into reference energy.
 New reference energy        -263.78645538
 
 AO(A)-basis ORBITAL           loaded. Number of functions:     230
 RI(R)-basis CC-PVTZ/JKFIT     loaded. Number of functions:     376
 DF-basis AUG-CC-PVTZ/MP2FIT   loaded. Number of functions:     516

 Screening thresholds:   THRAO=  1.00D-10  THRMO=  1.00D-09  THRPROD=  1.00D-09
                         THRSW=  1.00D-05  THROV=  1.00D-12  THRF12=   1.00D-08

 CPU time for 3-index integral evaluation         2.90 sec
 CPU time for first  half transformation          0.31 sec ( 9316.6 MFLOP/sec)
 CPU time for second half transformation          0.04 sec ( 2670.2 MFLOP/sec)
 CPU time for sorting                             0.17 sec
 CPU time for fitting                             0.04 sec (34826.3 MFLOP/sec)
 CPU time for tilde quantities                    0.06 sec (30814.7 MFLOP/sec)
 CPU time for assembly                            0.95 sec (24263.6 MFLOP/sec)
 CPU time for tranop_f12                          1.00 sec (29514.1 MFLOP/sec)
 CPU time for f12 integrals (total)               7.82 sec
 F12-matrices built in  3 passes.
 F12-matrices built in  3 passes.
 F12-matrices built in  3 passes.
 F12-matrices built in  3 passes.
 FC-matrix built in  3 passes.
 CPU time for f12 matrices (total)                0.71 sec

 Diagonal F12 approximation with fixed coefficients:  TSING= 0.500,  TTRIP= 0.250 (scaled by -1/beta)

 DF-MP2-F12 energy corrections:
 ------------------------------
 Approx.                                    Singlet             Triplet             Total
 DF-MP2-F12/3*C(DX,FIX)                -0.097421681032     -0.016929730676     -0.114351411709
 DF-MP2-F12/3*C(FIX)                   -0.079846470216     -0.013393656023     -0.093240126239
 DF-MP2-F12/3C(FIX)                    -0.080209049273     -0.013418212148     -0.093627261421

 DF-MP2-F12 correlation energies:
 --------------------------------
 Approx.                                    Singlet             Triplet             Ecorr            Total Energy
 DF-MP2                                -0.537675282164     -0.343117342517     -0.880792624681   -264.667248005068
 DF-MP2-F12/3*C(DX,FIX)                -0.635096963196     -0.360047073193     -0.995144036389   -264.781599416776
 DF-MP2-F12/3*C(FIX)                   -0.617521752380     -0.356510998539     -0.974032750919   -264.760488131306
 DF-MP2-F12/3C(FIX)                    -0.617884331437     -0.356535554664     -0.974419886102   -264.760875266489

 SCS-DF-MP2 energies (F_SING= 1.20000  F_TRIP= 0.62222  F_PARALLEL= 0.33333):
 ----------------------------------------------------------------------------
 SCS-DF-MP2                            -0.858705573940   -264.645160954328
 SCS-DF-MP2-F12/3*C(DX,FIX)            -0.986145645822   -264.772601026210
 SCS-DF-MP2-F12/3*C(FIX)               -0.962855168614   -264.749310549001
 SCS-DF-MP2-F12/3C(FIX)                -0.963305542849   -264.749760923236

 Symmetry restored.
 Symmetry transformation completed.

 Number of N-1 electron functions:              12
 Number of N-2 electron functions:              78
 Number of singly external CSFs:              1476
 Number of doubly external CSFs:           1686804
 Total number of CSFs:                     1688281

 Pair and operator lists are different

 Length of J-op  integral file:             466.42 MB
 Length of K-op  integral file:             526.62 MB
 Length of 3-ext integral record:             0.00 MB

 Memory could be reduced to 76.61 Mwords without degradation in triples

 Integral transformation finished. Total CPU:   5.47 sec, npass=  1  Memory used:  24.61 MW

 Reference energy:                   -263.78645538

 Adding F12 terms to K(Cij), methodcc=6,  factor=1.0

 ITER.      SQ.NORM     CORR.ENERGY   TOTAL ENERGY   ENERGY CHANGE        DEN1      VAR(S)    VAR(P)  DIIS     TIME
   1      1.20210123    -0.86276360  -264.64921898     0.01804511     0.04663500  0.72D-02  0.56D-02  1  1    18.94
   2      1.21640099    -0.85855408  -264.64500946     0.00420951    -0.02013089  0.87D-04  0.59D-03  2  2    22.21
   3      1.22176304    -0.85865378  -264.64510916    -0.00009970    -0.00236542  0.13D-03  0.32D-04  3  3    25.46
   4      1.22456573    -0.85852632  -264.64498170     0.00012746    -0.00141124  0.76D-05  0.41D-05  4  4    28.74
   5      1.22559538    -0.85848871  -264.64494409     0.00003761    -0.00036589  0.56D-06  0.28D-06  5  5    32.03
   6      1.22575748    -0.85846185  -264.64491723     0.00002687    -0.00000804  0.40D-07  0.24D-07  6  6    35.31
   7      1.22578684    -0.85845943  -264.64491481     0.00000242    -0.00000622  0.26D-08  0.40D-08  6  4    38.57
   8      1.22578715    -0.85845893  -264.64491432     0.00000049     0.00000194  0.40D-09  0.27D-09  6  1    41.81
   9      1.22578776    -0.85845900  -264.64491438    -0.00000007     0.00000056  0.27D-10  0.22D-10  6  2    45.03

 Norm of t1 vector:      0.10597038      S-energy:    -0.00000003      T1 diagnostic:  0.01529551
                                                                       D1 diagnostic:  0.04502900

 Adding energy correction from Wij-K(Fij), methodcc=6  factor=1.0
 
  CCSD correlation energy              -0.858459000741
  MP2-F12 correction (uncoupled)       -0.092469276458
  C*T doubles correction               -0.001473746768
  f12b correction                       0.015405362751


 Total CPU time for triples:     80.36 sec


 RESULTS
 =======

  Reference energy                   -263.770536837298
  F12 singles correction               -0.015918543089

 F12 singles corrections added to reference energy

  New reference energy               -263.786455380388

  F12a singlet correction              -0.080406944227
  F12a triplet correction              -0.013536078998
  F12a total correction                -0.093943023226

 F12a corrections for ansatz F12/3C(FIX) added to CCSD energy
 
  CCSD-F12a singlet pair energy        -0.641814486010
  CCSD-F12a triplet pair energy        -0.310587511091
  CCSD-F12a correlation energy         -0.952402023967

  Triples (T) contribution             -0.037644265597
  Total correlation energy             -0.990046289564

  CCSD-F12a total energy             -264.738857404355
  CCSD[T]-F12a energy                -264.779041825789
  CCSD-T-F12a energy                 -264.775566241186
 !CCSD(T)-F12a total energy          -264.776501669951

 F12b corrections for ansatz F12/3C(FIX) added to CCSD(T)-F12a energy

  CCSD-F12b singlet pair energy        -0.627632660109
  CCSD-F12b triplet pair energy        -0.309363974241
  CCSD-F12b correlation energy         -0.936996661216

  Triples (T) contribution             -0.037644265597
  Total correlation energy             -0.974640926813

  CCSD-F12b total energy             -264.723452041604
  CCSD[T]-F12b energy                -264.763636463038
  CCSD-T-F12b energy                 -264.760160878435
 !CCSD(T)-F12b total energy          -264.761096307200

 Timing summary (sec):

 STEP                 CPU(USER)    SYS     CPU(TOT)    WALL
 Transformation          5.51      0.58      6.09      6.09
 CCSD iterations        29.20      1.66     30.86     31.31
 Triples                80.36      1.66     82.02     82.00
 MP2-F12                10.33      1.36     11.69     12.22
 F12b energy             2.12      0.04      2.16      2.18

 Program statistics:

 Available memory in ccsd:                99998934
 Min. memory needed in ccsd:               4458306
 Max. memory used in ccsd:                 5958390
 Max. memory used in cckext:               6352469 (10 integral passes)



 **********************************************************************************************************************************
 DATASETS  * FILE   NREC   LENGTH (MB)   RECORD NAMES
              1      20      269.66       500      610      700      900      950      970     1000      129      960     1100   
                                          VAR    BASINP    GEOM    SYMINP    ZMAT    AOBASIS   BASIS     P2S    ABASIS      S 
                                         1400     1410     1200     1210     1080     1600     1650     1700      960(1)  1380   
                                           T        V       H0       H01     AOSYM     SMH    MOLCAS    OPER    ABASIS    JKOP   

              2       5        1.55       700     1000     2100     7360     7350   
                                         GEOM     BASIS     RHF    F12ABS    EF12   

 PROGRAMS   *        TOTAL   CCSD(T)        HF       INT
 CPU TIMES  *       142.12    127.67      4.81      9.52
 REAL TIME  *       150.04 SEC
 DISK USED  *         2.51 GB      
 SF USED    *         1.53 GB      
 GA USED    *         2.40 MB       (max)       0.00 MB       (current)
 **********************************************************************************************************************************

     CCSD(T)-F12        HF-SCF  
   -264.76109631   -263.77053684
 **********************************************************************************************************************************
 Variable memory released
