
 Primary working directories    : /scratch/kee
 Secondary working directories  : /scratch/kee
 Wavefunction directory         : /home/kee/wfu/
 Main file repository           : /scratch/kee/

 ARCHNAME  : Linux/x86_64
 FC        : /opt/intel/composer_xe_2015.0.090/bin/intel64/ifort
 FCVERSION : 15.0.0
 BLASLIB   : -L/opt/intel/mkl/lib/intel64 -lmkl_intel_ilp64 -lmkl_sequential -lmkl_core
 id        : emory

 Nodes     nprocs
 node18       3
 Number of processes for MPI-2 version of Molpro:   nprocs(total)=    4   nprocs(compute)=    3   nprocs(helper)=    1
 ga_uses_ma=false, calling ma_init with nominal heap.
 GA-space will be limited to   8.0 MW (determined by -G option)

 Using customized tuning parameters: mindgm=7; mindgv=32; mindgc=1; mindgr=1; noblas=0; mincuda=1000; minvec=7
 default implementation of scratch files=sf  

 ***,co2h2o
 memory,100,m
 basis avtz
 geomtype = xyz
 geometry = {
 6
    -264.76489694
 O     0.82869278    1.16169550    0.00000000
 O     0.82658011   -1.16233555    0.00000000
 O    -3.74123446    0.00148454    0.00000000
 H    -4.32486747    0.76207919    0.00000000
 H    -4.32459936   -0.75931738    0.00000000
 C     0.80876519   -0.00029961    0.00000000
 }
 hf
 ccsd(t)-f12
 ---

 Variables initialized (665), CPU time= 0.01 sec
 Commands  initialized (462), CPU time= 0.01 sec, 486 directives.
 Default parameters read. Elapsed time= 0.06 sec

 Checking input...
 Passed
1


                                         ***  PROGRAM SYSTEM MOLPRO  ***
                         Copyright, University College Cardiff Consultants Limited, 2008

                                    Version 2010.1 linked 9 Dec 2014 15:06:28 


 **********************************************************************************************************************************
 LABEL *   co2h2o                                                                        
 Linux-2.6.32-504.el6.x86_64/node18(x86_64) 64 bit mpp version                           DATE: 11-Dec-16          TIME: 23:20:09  
 **********************************************************************************************************************************

 Patch level:      19
 **********************************************************************************************************************************

 Variable memory set to  100000000 words,  buffer space   230000 words

 SETTING BASIS          =    AVTZ
 SETTING GEOMTYPE       =    XYZ

Geometry recognized as XYZ



 Recomputing integrals since basis changed


 Using spherical harmonics

 Library entry O      S aug-cc-pVTZ          selected for orbital group  1
 Library entry O      P aug-cc-pVTZ          selected for orbital group  1
 Library entry O      D aug-cc-pVTZ          selected for orbital group  1
 Library entry O      F aug-cc-pVTZ          selected for orbital group  1
 Library entry H      S aug-cc-pVTZ          selected for orbital group  2
 Library entry H      P aug-cc-pVTZ          selected for orbital group  2
 Library entry H      D aug-cc-pVTZ          selected for orbital group  2
 Library entry C      S aug-cc-pVTZ          selected for orbital group  3
 Library entry C      P aug-cc-pVTZ          selected for orbital group  3
 Library entry C      D aug-cc-pVTZ          selected for orbital group  3
 Library entry C      F aug-cc-pVTZ          selected for orbital group  3

1PROGRAM * SEWARD (Integral evaluation for generally contracted gaussian basis sets)     Author: Roland Lindh, 1990

 Geometry written to block  1 of record 700


 Point group  Cs  



 ATOMIC COORDINATES

 NR  ATOM    CHARGE       X              Y              Z

   1  O       8.00    1.566002401    2.195286343    0.000000000
   2  O       8.00    1.562010034   -2.196495862    0.000000000
   3  O       8.00   -7.069908523    0.002805374    0.000000000
   4  H       1.00   -8.172815073    1.440120960    0.000000000
   5  H       1.00   -8.172308419   -1.434901895    0.000000000
   6  C       6.00    1.528344714   -0.000566181    0.000000000

 Bond lengths in Bohr (Angstrom)

 1-6  2.196175405  2-6  2.196187724  3-4  1.811706088  3-5  1.811708509
     (1.162165971)     (1.162172490)     (0.958713571)     (0.958714852)

 Bond angles

  1-6-2  178.13918425   4-3-5  105.01947441

 NUCLEAR CHARGE:                   32
 NUMBER OF PRIMITIVE AOS:         322
 NUMBER OF SYMMETRY AOS:          282
 NUMBER OF CONTRACTIONS:          230   ( 152A'  +  78A"  )
 NUMBER OF CORE ORBITALS:           4   (   4A'  +   0A"  )
 NUMBER OF VALENCE ORBITALS:       18   (  14A'  +   4A"  )


 NUCLEAR REPULSION ENERGY   91.81608832


 Eigenvalues of metric

         1 0.342E-03 0.364E-03 0.372E-03 0.381E-03 0.897E-03 0.921E-03 0.161E-02 0.163E-02
         2 0.318E-02 0.348E-02 0.572E-02 0.124E-01 0.135E-01 0.282E-01 0.296E-01 0.312E-01


 Contracted 2-electron integrals neglected if value below      1.0D-11
 AO integral compression algorithm  1   Integral accuracy      1.0D-11

     513.278 MB (compressed) written to integral file ( 30.9%)

     Node minimum: 143.131 MB, node maximum: 210.239 MB


 NUMBER OF SORTED TWO-ELECTRON INTEGRALS:   59950380.     BUFFER LENGTH:  32768
 NUMBER OF SEGMENTS:   4  SEGMENT LENGTH:   15995235      RECORD LENGTH: 524288

 Memory used in sort:      16.55 MW

 SORT1 READ   207454657. AND WROTE    40284243. INTEGRALS IN    117 RECORDS. CPU TIME:     3.42 SEC, REAL TIME:     3.87 SEC
 SORT2 READ   121495691. AND WROTE   179836431. INTEGRALS IN   2406 RECORDS. CPU TIME:     1.34 SEC, REAL TIME:     1.78 SEC

 Node minimum:    59940574.  Node maximum:    59950380. integrals

 OPERATOR DM      FOR CENTER  0  COORDINATES:    0.000000    0.000000    0.000000


 **********************************************************************************************************************************
 DATASETS  * FILE   NREC   LENGTH (MB)   RECORD NAMES
              1      18        3.74       500      610      700      900      950      970     1000      129      960     1100   
                                          VAR    BASINP    GEOM    SYMINP    ZMAT    AOBASIS   BASIS     P2S    ABASIS      S 
                                         1400     1410     1200     1210     1080     1600     1650     1700   
                                           T        V       H0       H01     AOSYM     SMH    MOLCAS    OPER   

 PROGRAMS   *        TOTAL       INT
 CPU TIMES  *         9.61      9.49
 REAL TIME  *        10.72 SEC
 DISK USED  *         1.98 GB      
 GA USED    *         0.00 MB       (max)       0.00 MB       (current)
 **********************************************************************************************************************************

1PROGRAM * RHF-SCF (CLOSED SHELL)       Authors: W. Meyer, H.-J. Werner


 NUMBER OF ELECTRONS:      16+   16-
 CONVERGENCE THRESHOLDS:    1.00E-05 (Density)    1.00E-07 (Energy)
 MAX. NUMBER OF ITERATIONS:       60
 INTERPOLATION TYPE:            DIIS
 INTERPOLATION STEPS:              2 (START)      1 (STEP)
 LEVEL SHIFTS:                  0.00 (CLOSED)  0.00 (OPEN) 



 Orbital guess generated from atomic densities. Full valence occupancy:   18   4

 Molecular orbital dump at record        2100.2

 Initial alpha occupancy:  13   3
 Initial beta  occupancy:  13   3
 Wave function symmetry:    1

 ITERATION    DDIFF          GRAD             ENERGY        2-EL.EN.            DIPOLE MOMENTS         DIIS
    1      0.000D+00      0.000D+00      -263.66228165    379.534567   -1.18440   -0.00012    0.00000    0
    2      0.000D+00      0.627D-02      -263.72719558    374.850171   -0.72595   -0.00009    0.00000    1
    3      0.101D-01      0.424D-02      -263.76980051    377.416977   -0.83750   -0.00008    0.00000    2
    4      0.413D-02      0.402D-03      -263.77029554    377.210246   -0.84041   -0.00009    0.00000    3
    5      0.486D-03      0.117D-03      -263.77035358    377.209167   -0.83543   -0.00008    0.00000    4
    6      0.182D-03      0.475D-04      -263.77036083    377.224363   -0.83617   -0.00008    0.00000    5
    7      0.607D-04      0.115D-04      -263.77036156    377.215875   -0.83575   -0.00008    0.00000    6
    8      0.197D-04      0.254D-05      -263.77036160    377.217190   -0.83576   -0.00008    0.00000    7
    9      0.541D-05      0.850D-06      -263.77036161    377.216984   -0.83573   -0.00008    0.00000    0

 Final occupancy:  13   3

 !RHF STATE 1.1 Energy               -263.770361605586
 Nuclear energy                        91.81608832
 One-electron energy                 -544.19494206
 Two-electron energy                  188.60849214
 Virial quotient                       -1.00183902
 !RHF STATE 1.1 Dipole moment          -0.83572942    -0.00008201     0.00000000
 Dipole moment /Debye                  -2.12407319    -0.00020843     0.00000000

 Orbital energies:

         1.1          2.1          3.1          4.1          5.1          6.1          7.1          8.1          9.1         10.1
    -20.644070   -20.644025   -20.570397   -11.453097    -1.521730    -1.468685    -1.355655    -0.792272    -0.734597    -0.721131

        11.1         12.1         13.1         14.1         15.1
     -0.705566    -0.587310    -0.535521     0.027841     0.047299

         1.2          2.2          3.2          4.2          5.2
     -0.705893    -0.535656    -0.513375     0.080061     0.161586


 **********************************************************************************************************************************
 DATASETS  * FILE   NREC   LENGTH (MB)   RECORD NAMES
              1      18        3.76       500      610      700      900      950      970     1000      129      960     1100   
                                          VAR    BASINP    GEOM    SYMINP    ZMAT    AOBASIS   BASIS     P2S    ABASIS      S 
                                         1400     1410     1200     1210     1080     1600     1650     1700   
                                           T        V       H0       H01     AOSYM     SMH    MOLCAS    OPER   

              2       3        0.96       700     1000     2100   
                                         GEOM     BASIS     RHF  

 PROGRAMS   *        TOTAL        HF       INT
 CPU TIMES  *        15.64      6.04      9.49
 REAL TIME  *        17.06 SEC
 DISK USED  *         2.00 GB      
 SF USED    *         0.12 MB      
 GA USED    *         0.00 MB       (max)       0.00 MB       (current)
 **********************************************************************************************************************************


1PROGRAM * CCSD (Closed-shell coupled cluster)     Authors: C. Hampel, H.-J. Werner, 1991, M. Deegan, P.J. Knowles, 1992

                                  CCSD-F12 implementation by  H.-J. Werner, 2007

                   Density fitting integral evaluation by F.R. Manby, 2003,2007, G. Knizia, 2010

 Basis set CC-PVTZ/JKFIT generated.      Number of basis functions:   376 
 Basis set AUG-CC-PVTZ/MP2FIT generated. Number of basis functions:   516 

 Convergence thresholds:  THRVAR = 1.00D-08  THRDEN = 1.00D-06

 CCSD(T)     terms to be evaluated (factor= 1.000)


 Number of core orbitals:           4 (   4   0 )
 Number of closed-shell orbitals:  12 (   9   3 )
 Number of external orbitals:     214 ( 139  75 )

 Molecular orbitals read from record     2100.2  Type=RHF/CANONICAL (state 1.1)

 MP2-F12 correlation treatment (H.-J. Werner, 2006)
 --------------------------------------------------

 Using MP2-F12 with ansatz 3C(FIX)

 Using projected zeroth-order Hamiltonian (+Z)

 FOCKRIB=T FOCKRIC=T FOCKRIP=T CABSP=T CABSA=T CABSK=T CABSF=T GBC=F EBC=F DMAT=T NOFIK=T NOPAO=1 SOLVE=-1  USEPAO=0
 EXCH_A= T EXCH_B= F EXCH_C= F EXCH_P= F
 
 Geminal basis:    OPTFULL  GEM_TYPE=SLATER  BETA=1.0  NGEM=6

 Optimizing Gaussian exponents for each gem_beta

 Geminal optimization for beta= 1.0000
 Weight function:   m=0, omega= 1.4646

 Augmented Hessian optimization of geminal fit. Trust ratio= 0.40000
 Convergence reached after   2 iterations. Final gradient= 8.24D-16, Step= 4.32D-06, Delta= 1.28D-09
 
 Alpha:                 0.19532     0.81920     2.85917     9.50073    35.69989   197.79328
 Coeff:                 0.27070     0.30552     0.18297     0.10986     0.06810     0.04224
 

 Symmetry turned off. Reference energy:       -263.770361605586

 All pairs explicitly correlated. Number of r12-pairs:           78
 
 AO(A)-basis ORBITAL           loaded. Number of functions:     230
 RI(R)-basis CC-PVTZ/JKFIT     loaded. Number of functions:     376
 DF-basis CC-PVTZ/JKFIT        loaded. Number of functions:     376

 Screening thresholds:   THRAO=  1.00D-10  THRMO=  1.00D-09  THRPROD=  1.00D-09
                         THRSW=  1.00D-05  THROV=  1.00D-12  THRF12=   1.00D-08

 CPU time for Fock operators                      1.63 sec
 
 Construction of ABS:
 Smallest eigenvalue of S          2.57E-04  (threshold= 1.00E-08)
 Ratio eigmin/eigmax               1.83E-06  (threshold= 1.00E-09)
 Smallest eigenvalue of S kept     2.57E-04  (threshold= 2.57E-04, 0 functions deleted, 376 kept)
 
 Construction of CABS:
 Smallest eigenvalue of S          2.30E-08  (threshold= 1.00E-08)
 Ratio eigmin/eigmax               2.30E-08  (threshold= 1.00E-09)
 Smallest eigenvalue of S kept     2.30E-08  (threshold= 2.30E-08, 0 functions deleted, 376 kept)
 
 CPU time for CABS singles                        0.17 sec

 CABS-singles contribution of  -0.01591962 patched into reference energy.
 New reference energy        -263.78628123
 
 AO(A)-basis ORBITAL           loaded. Number of functions:     230
 RI(R)-basis CC-PVTZ/JKFIT     loaded. Number of functions:     376
 DF-basis AUG-CC-PVTZ/MP2FIT   loaded. Number of functions:     516

 Screening thresholds:   THRAO=  1.00D-10  THRMO=  1.00D-09  THRPROD=  1.00D-09
                         THRSW=  1.00D-05  THROV=  1.00D-12  THRF12=   1.00D-08

 CPU time for 3-index integral evaluation         3.01 sec
 CPU time for first  half transformation          0.35 sec ( 8176.3 MFLOP/sec)
 CPU time for second half transformation          0.01 sec (10048.5 MFLOP/sec)
 CPU time for sorting                             0.16 sec
 CPU time for fitting                             0.06 sec (23359.5 MFLOP/sec)
 CPU time for tilde quantities                    0.15 sec (12325.9 MFLOP/sec)
 CPU time for assembly                            0.90 sec (26794.0 MFLOP/sec)
 CPU time for tranop_f12                          1.19 sec (29420.8 MFLOP/sec)
 CPU time for f12 integrals (total)               8.76 sec
 F12-matrices built in  3 passes.
 F12-matrices built in  3 passes.
 F12-matrices built in  3 passes.
 F12-matrices built in  3 passes.
 FC-matrix built in  3 passes.
 CPU time for f12 matrices (total)                0.64 sec

 Diagonal F12 approximation with fixed coefficients:  TSING= 0.500,  TTRIP= 0.250 (scaled by -1/beta)

 DF-MP2-F12 energy corrections:
 ------------------------------
 Approx.                                    Singlet             Triplet             Total
 DF-MP2-F12/3*C(DX,FIX)                -0.097429545982     -0.016930460167     -0.114360006149
 DF-MP2-F12/3*C(FIX)                   -0.079852264142     -0.013393690420     -0.093245954562
 DF-MP2-F12/3C(FIX)                    -0.080214586651     -0.013417873789     -0.093632460441

 DF-MP2-F12 correlation energies:
 --------------------------------
 Approx.                                    Singlet             Triplet             Ecorr            Total Energy
 DF-MP2                                -0.537676283876     -0.343096244940     -0.880772528816   -264.667053757580
 DF-MP2-F12/3*C(DX,FIX)                -0.635105829858     -0.360026705107     -0.995132534966   -264.781413763729
 DF-MP2-F12/3*C(FIX)                   -0.617528548018     -0.356489935360     -0.974018483378   -264.760299712142
 DF-MP2-F12/3C(FIX)                    -0.617890870527     -0.356514118729     -0.974404989257   -264.760686218021

 SCS-DF-MP2 energies (F_SING= 1.20000  F_TRIP= 0.62222  F_PARALLEL= 0.33333):
 ----------------------------------------------------------------------------
 SCS-DF-MP2                            -0.858693648614   -264.644974877378
 SCS-DF-MP2-F12/3*C(DX,FIX)            -0.986143612341   -264.772424841105
 SCS-DF-MP2-F12/3*C(FIX)               -0.962850217401   -264.749131446165
 SCS-DF-MP2-F12/3C(FIX)                -0.963300051842   -264.749581280606

 Symmetry restored.
 Symmetry transformation completed.

 Number of N-1 electron functions:              12
 Number of N-2 electron functions:              78
 Number of singly external CSFs:              1476
 Number of doubly external CSFs:           1686804
 Total number of CSFs:                     1688281

 Pair and operator lists are different

 Length of J-op  integral file:             466.42 MB
 Length of K-op  integral file:             526.62 MB
 Length of 3-ext integral record:             0.00 MB

 Memory could be reduced to 76.61 Mwords without degradation in triples

 Integral transformation finished. Total CPU:   6.60 sec, npass=  1  Memory used:  24.61 MW

 Reference energy:                   -263.78628123

 Adding F12 terms to K(Cij), methodcc=6,  factor=1.0

 ITER.      SQ.NORM     CORR.ENERGY   TOTAL ENERGY   ENERGY CHANGE        DEN1      VAR(S)    VAR(P)  DIIS     TIME
   1      1.20210322    -0.86274239  -264.64902362     0.01804628     0.04664208  0.72D-02  0.56D-02  1  1    22.00
   2      1.21640414    -0.85852991  -264.64481114     0.00421248    -0.02013344  0.87D-04  0.59D-03  2  2    25.76
   3      1.22176548    -0.85862892  -264.64491015    -0.00009901    -0.00236508  0.13D-03  0.32D-04  3  3    30.25
   4      1.22456776    -0.85850142  -264.64478265     0.00012750    -0.00141116  0.76D-05  0.41D-05  4  4    34.03
   5      1.22559740    -0.85846380  -264.64474503     0.00003762    -0.00036596  0.56D-06  0.28D-06  5  5    37.63
   6      1.22575951    -0.85843694  -264.64471816     0.00002686    -0.00000804  0.40D-07  0.24D-07  6  6    41.22
   7      1.22578887    -0.85843452  -264.64471574     0.00000242    -0.00000622  0.26D-08  0.40D-08  6  4    44.84
   8      1.22578917    -0.85843402  -264.64471525     0.00000049     0.00000194  0.39D-09  0.27D-09  6  1    48.43
   9      1.22578979    -0.85843409  -264.64471532    -0.00000007     0.00000056  0.26D-10  0.21D-10  6  2    51.97

 Norm of t1 vector:      0.10596344      S-energy:    -0.00000003      T1 diagnostic:  0.01529451
                                                                       D1 diagnostic:  0.04501320

 Adding energy correction from Wij-K(Fij), methodcc=6  factor=1.0
 
  CCSD correlation energy              -0.858434090157
  MP2-F12 correction (uncoupled)       -0.092474353374
  C*T doubles correction               -0.001474377053
  f12b correction                       0.015405745828


 Total CPU time for triples:     86.92 sec


 RESULTS
 =======

  Reference energy                   -263.770361605586
  F12 singles correction               -0.015919623178

 F12 singles corrections added to reference energy

  New reference energy               -263.786281228764

  F12a singlet correction              -0.080412772440
  F12a triplet correction              -0.013535957986
  F12a total correction                -0.093948730427

 F12a corrections for ansatz F12/3C(FIX) added to CCSD energy
 
  CCSD-F12a singlet pair energy        -0.641823321479
  CCSD-F12a triplet pair energy        -0.310559472684
  CCSD-F12a correlation energy         -0.952382820584

  Triples (T) contribution             -0.037640053369
  Total correlation energy             -0.990022873952

  CCSD-F12a total energy             -264.738664049348
  CCSD[T]-F12a energy                -264.778844597741
  CCSD-T-F12a energy                 -264.775368385352
 !CCSD(T)-F12a total energy          -264.776304102717

 F12b corrections for ansatz F12/3C(FIX) added to CCSD(T)-F12a energy

  CCSD-F12b singlet pair energy        -0.627641045533
  CCSD-F12b triplet pair energy        -0.309336002803
  CCSD-F12b correlation energy         -0.936977074756

  Triples (T) contribution             -0.037640053369
  Total correlation energy             -0.974617128124

  CCSD-F12b total energy             -264.723258303520
  CCSD[T]-F12b energy                -264.763438851913
  CCSD-T-F12b energy                 -264.759962639524
 !CCSD(T)-F12b total energy          -264.760898356889

 Timing summary (sec):

 STEP                 CPU(USER)    SYS     CPU(TOT)    WALL
 Transformation          6.63      0.64      7.27      7.33
 CCSD iterations        33.56      2.05     35.61     37.09
 Triples                86.92      1.58     88.50     88.47
 MP2-F12                11.80      1.48     13.28     14.32
 F12b energy             2.30      0.06      2.36      2.35

 Program statistics:

 Available memory in ccsd:                99998934
 Min. memory needed in ccsd:               4458306
 Max. memory used in ccsd:                 5958390
 Max. memory used in cckext:               6352469 (10 integral passes)



 **********************************************************************************************************************************
 DATASETS  * FILE   NREC   LENGTH (MB)   RECORD NAMES
              1      20      269.66       500      610      700      900      950      970     1000      129      960     1100   
                                          VAR    BASINP    GEOM    SYMINP    ZMAT    AOBASIS   BASIS     P2S    ABASIS      S 
                                         1400     1410     1200     1210     1080     1600     1650     1700      960(1)  1380   
                                           T        V       H0       H01     AOSYM     SMH    MOLCAS    OPER    ABASIS    JKOP   

              2       5        1.55       700     1000     2100     7360     7350   
                                         GEOM     BASIS     RHF    F12ABS    EF12   

 PROGRAMS   *        TOTAL   CCSD(T)        HF       INT
 CPU TIMES  *       156.92    141.28      6.04      9.49
 REAL TIME  *       166.93 SEC
 DISK USED  *         2.44 GB      
 SF USED    *         1.53 GB      
 GA USED    *         2.40 MB       (max)       0.00 MB       (current)
 **********************************************************************************************************************************

     CCSD(T)-F12        HF-SCF  
   -264.76089836   -263.77036161
 **********************************************************************************************************************************
 Variable memory released
