
 Primary working directories    : /scratch/kee
 Secondary working directories  : /scratch/kee
 Wavefunction directory         : /home/kee/wfu/
 Main file repository           : /scratch/kee/

 ARCHNAME  : Linux/x86_64
 FC        : /opt/intel/composer_xe_2015.0.090/bin/intel64/ifort
 FCVERSION : 15.0.0
 BLASLIB   : -L/opt/intel/mkl/lib/intel64 -lmkl_intel_ilp64 -lmkl_sequential -lmkl_core
 id        : emory

 Nodes     nprocs
 node17       3
 Number of processes for MPI-2 version of Molpro:   nprocs(total)=    4   nprocs(compute)=    3   nprocs(helper)=    1
 ga_uses_ma=false, calling ma_init with nominal heap.
 GA-space will be limited to   8.0 MW (determined by -G option)

 Using customized tuning parameters: mindgm=7; mindgv=32; mindgc=1; mindgr=1; noblas=0; mincuda=1000; minvec=7
 default implementation of scratch files=sf  

 ***,co2h2o
 memory,100,m
 basis avtz
 geomtype = xyz
 geometry = {
 6
       0.00000000
 O     0.02747900    1.16001200    0.00000000
 O    -0.00936500   -1.16396300    0.00000000
 O     8.67529826   -0.03735453    0.00000000
 H     9.06439326    0.40391947    0.75746400
 H     9.06439326    0.40391947   -0.75746400
 C     0.02536600   -0.00312200    0.00000000
 }
 hf
 ccsd(t)-f12
 ---

 Variables initialized (665), CPU time= 0.01 sec
 Commands  initialized (462), CPU time= 0.00 sec, 486 directives.
 Default parameters read. Elapsed time= 0.03 sec

 Checking input...
 Passed
1


                                         ***  PROGRAM SYSTEM MOLPRO  ***
                         Copyright, University College Cardiff Consultants Limited, 2008

                                    Version 2010.1 linked 9 Dec 2014 15:06:28 


 **********************************************************************************************************************************
 LABEL *   co2h2o                                                                        
 Linux-2.6.32-504.el6.x86_64/node17(x86_64) 64 bit mpp version                           DATE: 15-Dec-16          TIME: 00:04:08  
 **********************************************************************************************************************************

 Patch level:      19
 **********************************************************************************************************************************

 Variable memory set to  100000000 words,  buffer space   230000 words

 SETTING BASIS          =    AVTZ
 SETTING GEOMTYPE       =    XYZ

Geometry recognized as XYZ



 Recomputing integrals since basis changed


 Using spherical harmonics

 Library entry O      S aug-cc-pVTZ          selected for orbital group  1
 Library entry O      P aug-cc-pVTZ          selected for orbital group  1
 Library entry O      D aug-cc-pVTZ          selected for orbital group  1
 Library entry O      F aug-cc-pVTZ          selected for orbital group  1
 Library entry H      S aug-cc-pVTZ          selected for orbital group  2
 Library entry H      P aug-cc-pVTZ          selected for orbital group  2
 Library entry H      D aug-cc-pVTZ          selected for orbital group  2
 Library entry C      S aug-cc-pVTZ          selected for orbital group  3
 Library entry C      P aug-cc-pVTZ          selected for orbital group  3
 Library entry C      D aug-cc-pVTZ          selected for orbital group  3
 Library entry C      F aug-cc-pVTZ          selected for orbital group  3

1PROGRAM * SEWARD (Integral evaluation for generally contracted gaussian basis sets)     Author: Roland Lindh, 1990

 Geometry written to block  1 of record 700


 Point group  Cs  



 ATOMIC COORDINATES

 NR  ATOM    CHARGE       X              Y              Z

   1  O       8.00    0.051927784    2.192104989    0.000000000
   2  O       8.00   -0.017697285   -2.199571297    0.000000000
   3  O       8.00   16.393937820   -0.070589831    0.000000000
   4  H       1.00   17.129220809    0.763297177    1.431399514
   5  H       1.00   17.129220809    0.763297177   -1.431399514
   6  C       6.00    0.047934793   -0.005899725    0.000000000

 Bond lengths in Bohr (Angstrom)

 1-6  2.198008341  2-6  2.194653170  3-4  1.812432947  3-5  1.812432947
     (1.163135919)     (1.161360439)     (0.959098208)     (0.959098208)

 Bond angles

  1-6-2  178.39037465   4-3-5  104.32746287

 NUCLEAR CHARGE:                   32
 NUMBER OF PRIMITIVE AOS:         322
 NUMBER OF SYMMETRY AOS:          282
 NUMBER OF CONTRACTIONS:          230   ( 143A'  +  87A"  )
 NUMBER OF CORE ORBITALS:           4   (   4A'  +   0A"  )
 NUMBER OF VALENCE ORBITALS:       18   (  13A'  +   5A"  )


 NUCLEAR REPULSION ENERGY   80.68689581


 Eigenvalues of metric

         1 0.349E-03 0.380E-03 0.420E-03 0.902E-03 0.922E-03 0.175E-02 0.184E-02 0.317E-02
         2 0.395E-03 0.166E-02 0.318E-02 0.348E-02 0.509E-02 0.622E-02 0.100E-01 0.125E-01


 Contracted 2-electron integrals neglected if value below      1.0D-11
 AO integral compression algorithm  1   Integral accuracy      1.0D-11

     297.271 MB (compressed) written to integral file ( 24.1%)

     Node minimum: 96.993 MB, node maximum: 101.712 MB


 NUMBER OF SORTED TWO-ELECTRON INTEGRALS:   59530350.     BUFFER LENGTH:  32768
 NUMBER OF SEGMENTS:   4  SEGMENT LENGTH:   15999984      RECORD LENGTH: 524288

 Memory used in sort:      16.56 MW

 SORT1 READ   154355633. AND WROTE    19803179. INTEGRALS IN     59 RECORDS. CPU TIME:     1.45 SEC, REAL TIME:     1.65 SEC
 SORT2 READ    59587926. AND WROTE   178576926. INTEGRALS IN   1128 RECORDS. CPU TIME:     0.61 SEC, REAL TIME:     0.81 SEC

 Node minimum:    59520934.  Node maximum:    59530350. integrals

 OPERATOR DM      FOR CENTER  0  COORDINATES:    0.000000    0.000000    0.000000


 **********************************************************************************************************************************
 DATASETS  * FILE   NREC   LENGTH (MB)   RECORD NAMES
              1      18        3.71       500      610      700      900      950      970     1000      129      960     1100   
                                          VAR    BASINP    GEOM    SYMINP    ZMAT    AOBASIS   BASIS     P2S    ABASIS      S 
                                         1400     1410     1200     1210     1080     1600     1650     1700   
                                           T        V       H0       H01     AOSYM     SMH    MOLCAS    OPER   

 PROGRAMS   *        TOTAL       INT
 CPU TIMES  *         4.16      4.09
 REAL TIME  *         4.85 SEC
 DISK USED  *         1.01 GB      
 GA USED    *         0.00 MB       (max)       0.00 MB       (current)
 **********************************************************************************************************************************

1PROGRAM * RHF-SCF (CLOSED SHELL)       Authors: W. Meyer, H.-J. Werner


 NUMBER OF ELECTRONS:      16+   16-
 CONVERGENCE THRESHOLDS:    1.00E-05 (Density)    1.00E-07 (Energy)
 MAX. NUMBER OF ITERATIONS:       60
 INTERPOLATION TYPE:            DIIS
 INTERPOLATION STEPS:              2 (START)      1 (STEP)
 LEVEL SHIFTS:                  0.00 (CLOSED)  0.00 (OPEN) 



 Orbital guess generated from atomic densities. Full valence occupancy:   17   5

 Molecular orbital dump at record        2100.2

 Initial alpha occupancy:  13   3
 Initial beta  occupancy:  13   3
 Wave function symmetry:    1

 ITERATION    DDIFF          GRAD             ENERGY        2-EL.EN.            DIPOLE MOMENTS         DIIS
    1      0.000D+00      0.000D+00      -263.66015730    356.895981    0.79962    0.84407    0.00000    0
    2      0.000D+00      0.643D-02      -263.72548646    352.335547    0.45797    0.49684    0.00000    1
    3      0.103D-01      0.437D-02      -263.76887713    354.895647    0.54460    0.57892    0.00000    2
    4      0.424D-02      0.410D-03      -263.76937249    354.682467    0.54661    0.58269    0.00000    3
    5      0.493D-03      0.119D-03      -263.76943056    354.685386    0.54300    0.57831    0.00000    4
    6      0.185D-03      0.482D-04      -263.76943774    354.699702    0.54343    0.57902    0.00000    5
    7      0.614D-04      0.118D-04      -263.76943847    354.691378    0.54313    0.57862    0.00000    6
    8      0.201D-04      0.261D-05      -263.76943852    354.692677    0.54314    0.57867    0.00000    7
    9      0.547D-05      0.895D-06      -263.76943853    354.692489    0.54312    0.57860    0.00000    0

 Final occupancy:  13   3

 !RHF STATE 1.1 Energy               -263.769438525361
 Nuclear energy                        80.68689581
 One-electron energy                 -521.80257875
 Two-electron energy                  177.34624441
 Virial quotient                       -1.00183256
 !RHF STATE 1.1 Dipole moment           0.54312068     0.57859970     0.00000000
 Dipole moment /Debye                   1.38038466     1.47055742     0.00000000

 Orbital energies:

         1.1          2.1          3.1          4.1          5.1          6.1          7.1          8.1          9.1         10.1
    -20.651634   -20.651170   -20.568108   -11.460215    -1.529026    -1.475921    -1.353281    -0.799298    -0.741526    -0.713068

        11.1         12.1         13.1         14.1         15.1
     -0.585479    -0.542725    -0.510773     0.028272     0.049701

         1.2          2.2          3.2          4.2          5.2
     -0.716969    -0.713098    -0.542755     0.047171     0.074982


 **********************************************************************************************************************************
 DATASETS  * FILE   NREC   LENGTH (MB)   RECORD NAMES
              1      18        3.72       500      610      700      900      950      970     1000      129      960     1100   
                                          VAR    BASINP    GEOM    SYMINP    ZMAT    AOBASIS   BASIS     P2S    ABASIS      S 
                                         1400     1410     1200     1210     1080     1600     1650     1700   
                                           T        V       H0       H01     AOSYM     SMH    MOLCAS    OPER   

              2       3        0.94       700     1000     2100   
                                         GEOM     BASIS     RHF  

 PROGRAMS   *        TOTAL        HF       INT
 CPU TIMES  *         7.05      2.89      4.09
 REAL TIME  *         7.91 SEC
 DISK USED  *         1.03 GB      
 SF USED    *         0.11 MB      
 GA USED    *         0.00 MB       (max)       0.00 MB       (current)
 **********************************************************************************************************************************


1PROGRAM * CCSD (Closed-shell coupled cluster)     Authors: C. Hampel, H.-J. Werner, 1991, M. Deegan, P.J. Knowles, 1992

                                  CCSD-F12 implementation by  H.-J. Werner, 2007

                   Density fitting integral evaluation by F.R. Manby, 2003,2007, G. Knizia, 2010

 Basis set CC-PVTZ/JKFIT generated.      Number of basis functions:   376 
 Basis set AUG-CC-PVTZ/MP2FIT generated. Number of basis functions:   516 

 Convergence thresholds:  THRVAR = 1.00D-08  THRDEN = 1.00D-06

 CCSD(T)     terms to be evaluated (factor= 1.000)


 Number of core orbitals:           4 (   4   0 )
 Number of closed-shell orbitals:  12 (   9   3 )
 Number of external orbitals:     214 ( 130  84 )

 Molecular orbitals read from record     2100.2  Type=RHF/CANONICAL (state 1.1)

 MP2-F12 correlation treatment (H.-J. Werner, 2006)
 --------------------------------------------------

 Using MP2-F12 with ansatz 3C(FIX)

 Using projected zeroth-order Hamiltonian (+Z)

 FOCKRIB=T FOCKRIC=T FOCKRIP=T CABSP=T CABSA=T CABSK=T CABSF=T GBC=F EBC=F DMAT=T NOFIK=T NOPAO=1 SOLVE=-1  USEPAO=0
 EXCH_A= T EXCH_B= F EXCH_C= F EXCH_P= F
 
 Geminal basis:    OPTFULL  GEM_TYPE=SLATER  BETA=1.0  NGEM=6

 Optimizing Gaussian exponents for each gem_beta

 Geminal optimization for beta= 1.0000
 Weight function:   m=0, omega= 1.4646

 Augmented Hessian optimization of geminal fit. Trust ratio= 0.40000
 Convergence reached after   2 iterations. Final gradient= 8.24D-16, Step= 4.32D-06, Delta= 1.28D-09
 
 Alpha:                 0.19532     0.81920     2.85917     9.50073    35.69989   197.79328
 Coeff:                 0.27070     0.30552     0.18297     0.10986     0.06810     0.04224
 

 Symmetry turned off. Reference energy:       -263.769438525361

 All pairs explicitly correlated. Number of r12-pairs:           78
 
 AO(A)-basis ORBITAL           loaded. Number of functions:     230
 RI(R)-basis CC-PVTZ/JKFIT     loaded. Number of functions:     376
 DF-basis CC-PVTZ/JKFIT        loaded. Number of functions:     376

 Screening thresholds:   THRAO=  1.00D-10  THRMO=  1.00D-09  THRPROD=  1.00D-09
                         THRSW=  1.00D-05  THROV=  1.00D-12  THRF12=   1.00D-08

 CPU time for Fock operators                      0.85 sec
 
 Construction of ABS:
 Smallest eigenvalue of S          2.57E-04  (threshold= 1.00E-08)
 Ratio eigmin/eigmax               1.83E-06  (threshold= 1.00E-09)
 Smallest eigenvalue of S kept     2.57E-04  (threshold= 2.57E-04, 0 functions deleted, 376 kept)
 
 Construction of CABS:
 Smallest eigenvalue of S          2.30E-08  (threshold= 1.00E-08)
 Ratio eigmin/eigmax               2.30E-08  (threshold= 1.00E-09)
 Smallest eigenvalue of S kept     2.30E-08  (threshold= 2.30E-08, 0 functions deleted, 376 kept)
 
 CPU time for CABS singles                        0.16 sec

 CABS-singles contribution of  -0.01592193 patched into reference energy.
 New reference energy        -263.78536046
 
 AO(A)-basis ORBITAL           loaded. Number of functions:     230
 RI(R)-basis CC-PVTZ/JKFIT     loaded. Number of functions:     376
 DF-basis AUG-CC-PVTZ/MP2FIT   loaded. Number of functions:     516

 Screening thresholds:   THRAO=  1.00D-10  THRMO=  1.00D-09  THRPROD=  1.00D-09
                         THRSW=  1.00D-05  THROV=  1.00D-12  THRF12=   1.00D-08

 CPU time for 3-index integral evaluation         1.71 sec
 CPU time for first  half transformation          0.19 sec (12589.9 MFLOP/sec)
 CPU time for second half transformation          0.03 sec ( 3129.3 MFLOP/sec)
 CPU time for sorting                             0.12 sec
 CPU time for fitting                             0.05 sec (27861.0 MFLOP/sec)
 CPU time for tilde quantities                    0.05 sec (36977.6 MFLOP/sec)
 CPU time for assembly                            0.78 sec (30292.1 MFLOP/sec)
 CPU time for tranop_f12                          0.89 sec (33751.8 MFLOP/sec)
 CPU time for f12 integrals (total)               5.80 sec
 F12-matrices built in  3 passes.
 F12-matrices built in  3 passes.
 F12-matrices built in  3 passes.
 F12-matrices built in  3 passes.
 FC-matrix built in  3 passes.
 CPU time for f12 matrices (total)                0.49 sec

 Diagonal F12 approximation with fixed coefficients:  TSING= 0.500,  TTRIP= 0.250 (scaled by -1/beta)

 DF-MP2-F12 energy corrections:
 ------------------------------
 Approx.                                    Singlet             Triplet             Total
 DF-MP2-F12/3*C(DX,FIX)                -0.097445056164     -0.016932629289     -0.114377685453
 DF-MP2-F12/3*C(FIX)                   -0.079860644362     -0.013395007133     -0.093255651494
 DF-MP2-F12/3C(FIX)                    -0.080222116192     -0.013418466329     -0.093640582521

 DF-MP2-F12 correlation energies:
 --------------------------------
 Approx.                                    Singlet             Triplet             Ecorr            Total Energy
 DF-MP2                                -0.537784680269     -0.343107873188     -0.880892553456   -264.666253011803
 DF-MP2-F12/3*C(DX,FIX)                -0.635229736433     -0.360040502476     -0.995270238909   -264.780630697256
 DF-MP2-F12/3*C(FIX)                   -0.617645324630     -0.356502880320     -0.974148204950   -264.759508663297
 DF-MP2-F12/3C(FIX)                    -0.618006796460     -0.356526339517     -0.974533135977   -264.759893594324

 SCS-DF-MP2 energies (F_SING= 1.20000  F_TRIP= 0.62222  F_PARALLEL= 0.33333):
 ----------------------------------------------------------------------------
 SCS-DF-MP2                            -0.858830959639   -264.644191417985
 SCS-DF-MP2-F12/3*C(DX,FIX)            -0.986300885260   -264.771661343607
 SCS-DF-MP2-F12/3*C(FIX)               -0.962998403978   -264.748358862324
 SCS-DF-MP2-F12/3C(FIX)                -0.963446767007   -264.748807225354

 Symmetry restored.
 Symmetry transformation completed.

 Number of N-1 electron functions:              12
 Number of N-2 electron functions:              78
 Number of singly external CSFs:              1422
 Number of doubly external CSFs:           1668984
 Total number of CSFs:                     1670407

 Pair and operator lists are different

 Length of J-op  integral file:             466.33 MB
 Length of K-op  integral file:             525.76 MB
 Length of 3-ext integral record:             0.00 MB

 Memory could be reduced to 76.19 Mwords without degradation in triples

 Integral transformation finished. Total CPU:   3.60 sec, npass=  1  Memory used:  26.50 MW

 Reference energy:                   -263.78536046

 Adding F12 terms to K(Cij), methodcc=6,  factor=1.0

 ITER.      SQ.NORM     CORR.ENERGY   TOTAL ENERGY   ENERGY CHANGE        DEN1      VAR(S)    VAR(P)  DIIS     TIME
   1      1.20220130    -0.86283241  -264.64819287     0.01807656     0.04672367  0.72D-02  0.56D-02  1  1    13.54
   2      1.21652243    -0.85860363  -264.64396408     0.00422878    -0.02016212  0.86D-04  0.59D-03  2  2    15.87
   3      1.22188833    -0.85870009  -264.64406055    -0.00009647    -0.00236642  0.13D-03  0.32D-04  3  3    18.20
   4      1.22469267    -0.85857215  -264.64393260     0.00012795    -0.00141237  0.76D-05  0.41D-05  4  4    20.53
   5      1.22572347    -0.85853446  -264.64389492     0.00003769    -0.00036665  0.56D-06  0.29D-06  5  5    22.89
   6      1.22588573    -0.85850760  -264.64386805     0.00002686    -0.00000806  0.40D-07  0.24D-07  6  6    25.25
   7      1.22591512    -0.85850517  -264.64386563     0.00000243    -0.00000622  0.26D-08  0.40D-08  6  4    27.65
   8      1.22591543    -0.85850468  -264.64386514     0.00000049     0.00000194  0.39D-09  0.27D-09  6  1    30.01
   9      1.22591604    -0.85850474  -264.64386520    -0.00000007     0.00000056  0.26D-10  0.21D-10  6  2    32.37

 Norm of t1 vector:      0.10599720      S-energy:    -0.00000003      T1 diagnostic:  0.01529938
                                                                       D1 diagnostic:  0.04495363

 Adding energy correction from Wij-K(Fij), methodcc=6  factor=1.0
 
  CCSD correlation energy              -0.858504743194
  MP2-F12 correction (uncoupled)       -0.092482254932
  C*T doubles correction               -0.001476359390
  f12b correction                       0.015406916692


 Total CPU time for triples:     71.41 sec


 RESULTS
 =======

  Reference energy                   -263.769438525361
  F12 singles correction               -0.015921932985

 F12 singles corrections added to reference energy

  New reference energy               -263.785360458347

  F12a singlet correction              -0.080421720828
  F12a triplet correction              -0.013536893494
  F12a total correction                -0.093958614322

 F12a corrections for ansatz F12/3C(FIX) added to CCSD energy
 
  CCSD-F12a singlet pair energy        -0.641949923684
  CCSD-F12a triplet pair energy        -0.310513408230
  CCSD-F12a correlation energy         -0.952463357515

  Triples (T) contribution             -0.037650017964
  Total correlation energy             -0.990113375480

  CCSD-F12a total energy             -264.737823815862
  CCSD[T]-F12a energy                -264.778019008188
  CCSD-T-F12a energy                 -264.774535603616
 !CCSD(T)-F12a total energy          -264.775473833826

 F12b corrections for ansatz F12/3C(FIX) added to CCSD(T)-F12a energy

  CCSD-F12b singlet pair energy        -0.627766225272
  CCSD-F12b triplet pair energy        -0.309290189950
  CCSD-F12b correlation energy         -0.937056440823

  Triples (T) contribution             -0.037650017964
  Total correlation energy             -0.974706458788

  CCSD-F12b total energy             -264.722416899170
  CCSD[T]-F12b energy                -264.762612091496
  CCSD-T-F12b energy                 -264.759128686924
 !CCSD(T)-F12b total energy          -264.760066917134

 Timing summary (sec):

 STEP                 CPU(USER)    SYS     CPU(TOT)    WALL
 Transformation          3.62      0.49      4.11      4.10
 CCSD iterations        21.06      1.34     22.40     22.63
 Triples                71.41      1.57     72.98     72.97
 MP2-F12                 7.70      1.12      8.82      8.84
 F12b energy             1.44      0.02      1.46      1.46

 Program statistics:

 Available memory in ccsd:                99998934
 Min. memory needed in ccsd:               4419579
 Max. memory used in ccsd:                 5922321
 Max. memory used in cckext:               6231049 (10 integral passes)



 **********************************************************************************************************************************
 DATASETS  * FILE   NREC   LENGTH (MB)   RECORD NAMES
              1      20      268.24       500      610      700      900      950      970     1000      129      960     1100   
                                          VAR    BASINP    GEOM    SYMINP    ZMAT    AOBASIS   BASIS     P2S    ABASIS      S 
                                         1400     1410     1200     1210     1080     1600     1650     1700      960(1)  1380   
                                           T        V       H0       H01     AOSYM     SMH    MOLCAS    OPER    ABASIS    JKOP   

              2       5        1.51       700     1000     2100     7360     7350   
                                         GEOM     BASIS     RHF    F12ABS    EF12   

 PROGRAMS   *        TOTAL   CCSD(T)        HF       INT
 CPU TIMES  *       112.33    105.28      2.89      4.09
 REAL TIME  *       118.17 SEC
 DISK USED  *         1.47 GB      
 SF USED    *         1.52 GB      
 GA USED    *         2.40 MB       (max)       0.00 MB       (current)
 **********************************************************************************************************************************

     CCSD(T)-F12        HF-SCF  
   -264.76006692   -263.76943853
 **********************************************************************************************************************************
 Variable memory released
