
 Primary working directories    : /scratch/kee
 Secondary working directories  : /scratch/kee
 Wavefunction directory         : /home/kee/wfu/
 Main file repository           : /scratch/kee/

 ARCHNAME  : Linux/x86_64
 FC        : /opt/intel/composer_xe_2015.0.090/bin/intel64/ifort
 FCVERSION : 15.0.0
 BLASLIB   : -L/opt/intel/mkl/lib/intel64 -lmkl_intel_ilp64 -lmkl_sequential -lmkl_core
 id        : emory

 Nodes     nprocs
 node4        3
 Number of processes for MPI-2 version of Molpro:   nprocs(total)=    4   nprocs(compute)=    3   nprocs(helper)=    1
 ga_uses_ma=false, calling ma_init with nominal heap.
 GA-space will be limited to   8.0 MW (determined by -G option)

 Using customized tuning parameters: mindgm=7; mindgv=32; mindgc=1; mindgr=1; noblas=0; mincuda=1000; minvec=7
 default implementation of scratch files=sf  

 ***,co2h2o
 memory,100,m
 basis avtz
 geomtype = xyz
 geometry = {
 6
       0.00000000
 O     0.00351000    1.16210700    0.00000000
 O     0.00351000   -1.16210700    0.00000000
 O     3.26968000    0.00000000    0.00000000
 H     3.85589800    0.00000000    0.75853100
 H     3.85589800    0.00000000   -0.75853100
 C     0.01968000    0.00000000    0.00000000
 }
 hf
 ccsd(t)-f12
 ---

 Variables initialized (665), CPU time= 0.01 sec
 Commands  initialized (462), CPU time= 0.01 sec, 486 directives.
 Default parameters read. Elapsed time= 0.04 sec

 Checking input...
 Passed
1


                                         ***  PROGRAM SYSTEM MOLPRO  ***
                         Copyright, University College Cardiff Consultants Limited, 2008

                                    Version 2010.1 linked 9 Dec 2014 15:06:28 


 **********************************************************************************************************************************
 LABEL *   co2h2o                                                                        
 Linux-2.6.32-504.el6.x86_64/node4(x86_64) 64 bit mpp version                            DATE: 12-Dec-16          TIME: 15:03:13  
 **********************************************************************************************************************************

 Patch level:      19
 **********************************************************************************************************************************

 Variable memory set to  100000000 words,  buffer space   230000 words

 SETTING BASIS          =    AVTZ
 SETTING GEOMTYPE       =    XYZ

Geometry recognized as XYZ



 Recomputing integrals since basis changed


 Using spherical harmonics

 Library entry O      S aug-cc-pVTZ          selected for orbital group  1
 Library entry O      P aug-cc-pVTZ          selected for orbital group  1
 Library entry O      D aug-cc-pVTZ          selected for orbital group  1
 Library entry O      F aug-cc-pVTZ          selected for orbital group  1
 Library entry H      S aug-cc-pVTZ          selected for orbital group  2
 Library entry H      P aug-cc-pVTZ          selected for orbital group  2
 Library entry H      D aug-cc-pVTZ          selected for orbital group  2
 Library entry C      S aug-cc-pVTZ          selected for orbital group  3
 Library entry C      P aug-cc-pVTZ          selected for orbital group  3
 Library entry C      D aug-cc-pVTZ          selected for orbital group  3
 Library entry C      F aug-cc-pVTZ          selected for orbital group  3

1PROGRAM * SEWARD (Integral evaluation for generally contracted gaussian basis sets)     Author: Roland Lindh, 1990

 Geometry written to block  1 of record 700


 Point group  C2v 



 ATOMIC COORDINATES

 NR  ATOM    CHARGE       X              Y              Z

   1  O       8.00    0.006632939    2.196063965    0.000000000
   2  O       8.00    0.006632939   -2.196063965    0.000000000
   3  O       8.00    6.178799737    0.000000000    0.000000000
   4  H       1.00    7.286591211    0.000000000    1.433415852
   5  H       1.00    7.286591211    0.000000000   -1.433415852
   6  C       6.00    0.037189810    0.000000000    0.000000000

 Bond lengths in Bohr (Angstrom)

 1-6  2.196276545  2-6  2.196276545  3-4  1.811596797  3-5  1.811596797
     (1.162219492)     (1.162219492)     (0.958655737)     (0.958655737)

 Bond angles

  1-6-2  178.40563223   4-3-5  104.60391356

 NUCLEAR CHARGE:                   32
 NUMBER OF PRIMITIVE AOS:         322
 NUMBER OF SYMMETRY AOS:          282
 NUMBER OF CONTRACTIONS:          230   (  84A1  +  59B1  +  54B2  +  33A2  )
 NUMBER OF CORE ORBITALS:           4   (   3A1  +   1B1  +   0B2  +   0A2  )
 NUMBER OF VALENCE ORBITALS:       18   (   8A1  +   5B1  +   4B2  +   1A2  )


 NUCLEAR REPULSION ENERGY  100.57594593


 Eigenvalues of metric

         1 0.296E-03 0.369E-03 0.887E-03 0.126E-02 0.203E-02 0.310E-02 0.324E-02 0.376E-02
         2 0.344E-03 0.858E-03 0.174E-02 0.317E-02 0.484E-02 0.683E-02 0.144E-01 0.207E-01
         3 0.361E-03 0.159E-02 0.313E-02 0.408E-02 0.616E-02 0.853E-02 0.130E-01 0.142E-01
         4 0.346E-02 0.123E-01 0.295E-01 0.360E-01 0.553E-01 0.684E-01 0.106E+00 0.140E+00


 Contracted 2-electron integrals neglected if value below      1.0D-11
 AO integral compression algorithm  1   Integral accuracy      1.0D-11

     367.002 MB (compressed) written to integral file ( 41.1%)

     Node minimum: 113.246 MB, node maximum: 136.577 MB


 NUMBER OF SORTED TWO-ELECTRON INTEGRALS:   29979201.     BUFFER LENGTH:  32768
 NUMBER OF SEGMENTS:   2  SEGMENT LENGTH:   15996954      RECORD LENGTH: 524288

 Memory used in sort:      16.55 MW

 SORT1 READ   111555100. AND WROTE    25847849. INTEGRALS IN     75 RECORDS. CPU TIME:     2.78 SEC, REAL TIME:     3.20 SEC
 SORT2 READ    77590892. AND WROTE    89930217. INTEGRALS IN   1563 RECORDS. CPU TIME:     1.45 SEC, REAL TIME:     5.00 SEC

 Node minimum:    29974277.  Node maximum:    29979201. integrals

 OPERATOR DM      FOR CENTER  0  COORDINATES:    0.000000    0.000000    0.000000


 **********************************************************************************************************************************
 DATASETS  * FILE   NREC   LENGTH (MB)   RECORD NAMES
              1      18        3.23       500      610      700      900      950      970     1000      129      960     1100   
                                          VAR    BASINP    GEOM    SYMINP    ZMAT    AOBASIS   BASIS     P2S    ABASIS      S 
                                         1400     1410     1200     1210     1080     1600     1650     1700   
                                           T        V       H0       H01     AOSYM     SMH    MOLCAS    OPER   

 PROGRAMS   *        TOTAL       INT
 CPU TIMES  *         6.82      6.74
 REAL TIME  *        10.96 SEC
 DISK USED  *         1.29 GB      
 GA USED    *         0.00 MB       (max)       0.00 MB       (current)
 **********************************************************************************************************************************

1PROGRAM * RHF-SCF (CLOSED SHELL)       Authors: W. Meyer, H.-J. Werner


 NUMBER OF ELECTRONS:      16+   16-
 CONVERGENCE THRESHOLDS:    1.00E-05 (Density)    1.00E-07 (Energy)
 MAX. NUMBER OF ITERATIONS:       60
 INTERPOLATION TYPE:            DIIS
 INTERPOLATION STEPS:              2 (START)      1 (STEP)
 LEVEL SHIFTS:                  0.00 (CLOSED)  0.00 (OPEN) 



 Orbital guess generated from atomic densities. Full valence occupancy:   11   6   4   1

 Molecular orbital dump at record        2100.2

 Initial alpha occupancy:   8   5   2   1
 Initial beta  occupancy:   8   5   2   1
 Wave function symmetry:    1

 ITERATION    DDIFF          GRAD             ENERGY        2-EL.EN.            DIPOLE MOMENTS         DIIS
    1      0.000D+00      0.000D+00      -263.66543660    397.398678    1.19155    0.00000    0.00000    0
    2      0.000D+00      0.877D-02      -263.72971438    392.662250    0.81014    0.00000    0.00000    1
    3      0.141D-01      0.589D-02      -263.77085683    395.191356    0.89457    0.00000    0.00000    2
    4      0.576D-02      0.570D-03      -263.77135211    394.999069    0.89644    0.00000    0.00000    3
    5      0.698D-03      0.168D-03      -263.77141056    394.990878    0.89187    0.00000    0.00000    4
    6      0.261D-03      0.684D-04      -263.77141809    395.007633    0.89272    0.00000    0.00000    5
    7      0.872D-04      0.161D-04      -263.77141883    394.999023    0.89233    0.00000    0.00000    6
    8      0.285D-04      0.357D-05      -263.77141888    395.000380    0.89236    0.00000    0.00000    7
    9      0.763D-05      0.120D-05      -263.77141888    395.000149    0.89233    0.00000    0.00000    0

 Final occupancy:   8   5   2   1

 !RHF STATE 1.1 Energy               -263.771418882997
 Nuclear energy                       100.57594593
 One-electron energy                 -561.84743930
 Two-electron energy                  197.50007449
 Virial quotient                       -1.00183064
 !RHF STATE 1.1 Dipole moment           0.89233386     0.00000000     0.00000000
 Dipole moment /Debye                   2.26793790     0.00000000     0.00000000

 Orbital energies:

         1.1          2.1          3.1          4.1          5.1          6.1          7.1          8.1          9.1         10.1
    -20.635365   -20.575100   -11.444964    -1.513139    -1.360988    -0.784222    -0.697326    -0.593958     0.025915     0.063510

         1.2          2.2          3.2          4.2          5.2          6.2          7.2
    -20.635411    -1.460196    -0.726649    -0.528527    -0.517235     0.086751     0.164398

         1.3          2.3          3.3          4.3
     -0.725376    -0.697651     0.045548     0.088685

         1.4          2.4          3.4
     -0.527538     0.169945     0.268409


 **********************************************************************************************************************************
 DATASETS  * FILE   NREC   LENGTH (MB)   RECORD NAMES
              1      18        3.25       500      610      700      900      950      970     1000      129      960     1100   
                                          VAR    BASINP    GEOM    SYMINP    ZMAT    AOBASIS   BASIS     P2S    ABASIS      S 
                                         1400     1410     1200     1210     1080     1600     1650     1700   
                                           T        V       H0       H01     AOSYM     SMH    MOLCAS    OPER   

              2       3        0.67       700     1000     2100   
                                         GEOM     BASIS     RHF  

 PROGRAMS   *        TOTAL        HF       INT
 CPU TIMES  *         8.29      1.47      6.74
 REAL TIME  *        12.57 SEC
 DISK USED  *         1.31 GB      
 SF USED    *         0.06 MB      
 GA USED    *         0.00 MB       (max)       0.00 MB       (current)
 **********************************************************************************************************************************


1PROGRAM * CCSD (Closed-shell coupled cluster)     Authors: C. Hampel, H.-J. Werner, 1991, M. Deegan, P.J. Knowles, 1992

                                  CCSD-F12 implementation by  H.-J. Werner, 2007

                   Density fitting integral evaluation by F.R. Manby, 2003,2007, G. Knizia, 2010

 Basis set CC-PVTZ/JKFIT generated.      Number of basis functions:   376 
 Basis set AUG-CC-PVTZ/MP2FIT generated. Number of basis functions:   516 

 Convergence thresholds:  THRVAR = 1.00D-08  THRDEN = 1.00D-06

 CCSD(T)     terms to be evaluated (factor= 1.000)


 Number of core orbitals:           4 (   3   1   0   0 )
 Number of closed-shell orbitals:  12 (   5   4   2   1 )
 Number of external orbitals:     214 (  76  54  52  32 )

 Molecular orbitals read from record     2100.2  Type=RHF/CANONICAL (state 1.1)

 MP2-F12 correlation treatment (H.-J. Werner, 2006)
 --------------------------------------------------

 Using MP2-F12 with ansatz 3C(FIX)

 Using projected zeroth-order Hamiltonian (+Z)

 FOCKRIB=T FOCKRIC=T FOCKRIP=T CABSP=T CABSA=T CABSK=T CABSF=T GBC=F EBC=F DMAT=T NOFIK=T NOPAO=1 SOLVE=-1  USEPAO=0
 EXCH_A= T EXCH_B= F EXCH_C= F EXCH_P= F
 
 Geminal basis:    OPTFULL  GEM_TYPE=SLATER  BETA=1.0  NGEM=6

 Optimizing Gaussian exponents for each gem_beta

 Geminal optimization for beta= 1.0000
 Weight function:   m=0, omega= 1.4646

 Augmented Hessian optimization of geminal fit. Trust ratio= 0.40000
 Convergence reached after   2 iterations. Final gradient= 8.24D-16, Step= 4.32D-06, Delta= 1.28D-09
 
 Alpha:                 0.19532     0.81920     2.85917     9.50073    35.69989   197.79328
 Coeff:                 0.27070     0.30552     0.18297     0.10986     0.06810     0.04224
 

 Symmetry turned off. Reference energy:       -263.771418882997

 All pairs explicitly correlated. Number of r12-pairs:           78
 
 AO(A)-basis ORBITAL           loaded. Number of functions:     230
 RI(R)-basis CC-PVTZ/JKFIT     loaded. Number of functions:     376
 DF-basis CC-PVTZ/JKFIT        loaded. Number of functions:     376

 Screening thresholds:   THRAO=  1.00D-10  THRMO=  1.00D-09  THRPROD=  1.00D-09
                         THRSW=  1.00D-05  THROV=  1.00D-12  THRF12=   1.00D-08

 CPU time for Fock operators                      1.09 sec
 
 Construction of ABS:
 Smallest eigenvalue of S          2.55E-04  (threshold= 1.00E-08)
 Ratio eigmin/eigmax               1.81E-06  (threshold= 1.00E-09)
 Smallest eigenvalue of S kept     2.55E-04  (threshold= 2.55E-04, 0 functions deleted, 376 kept)
 
 Construction of CABS:
 Smallest eigenvalue of S          2.28E-08  (threshold= 1.00E-08)
 Ratio eigmin/eigmax               2.28E-08  (threshold= 1.00E-09)
 Smallest eigenvalue of S kept     2.28E-08  (threshold= 2.28E-08, 0 functions deleted, 376 kept)
 
 CPU time for CABS singles                        0.19 sec

 CABS-singles contribution of  -0.01593537 patched into reference energy.
 New reference energy        -263.78735425
 
 AO(A)-basis ORBITAL           loaded. Number of functions:     230
 RI(R)-basis CC-PVTZ/JKFIT     loaded. Number of functions:     376
 DF-basis AUG-CC-PVTZ/MP2FIT   loaded. Number of functions:     516

 Screening thresholds:   THRAO=  1.00D-10  THRMO=  1.00D-09  THRPROD=  1.00D-09
                         THRSW=  1.00D-05  THROV=  1.00D-12  THRF12=   1.00D-08

 CPU time for 3-index integral evaluation         3.28 sec
 CPU time for first  half transformation          0.53 sec ( 5501.8 MFLOP/sec)
 CPU time for second half transformation          0.04 sec ( 2329.4 MFLOP/sec)
 CPU time for sorting                             0.33 sec
 CPU time for fitting                             0.06 sec (23217.5 MFLOP/sec)
 CPU time for tilde quantities                    0.08 sec (23324.0 MFLOP/sec)
 CPU time for assembly                            1.11 sec (21280.7 MFLOP/sec)
 CPU time for tranop_f12                          0.97 sec (30551.0 MFLOP/sec)
 CPU time for f12 integrals (total)               9.03 sec
 F12-matrices built in  3 passes.
 F12-matrices built in  3 passes.
 F12-matrices built in  3 passes.
 F12-matrices built in  3 passes.
 FC-matrix built in  3 passes.
 CPU time for f12 matrices (total)                0.75 sec

 Diagonal F12 approximation with fixed coefficients:  TSING= 0.500,  TTRIP= 0.250 (scaled by -1/beta)

 DF-MP2-F12 energy corrections:
 ------------------------------
 Approx.                                    Singlet             Triplet             Total
 DF-MP2-F12/3*C(DX,FIX)                -0.097365361860     -0.016948771210     -0.114314133070
 DF-MP2-F12/3*C(FIX)                   -0.079797078666     -0.013424479102     -0.093221557768
 DF-MP2-F12/3C(FIX)                    -0.080165484978     -0.013455159806     -0.093620644785

 DF-MP2-F12 correlation energies:
 --------------------------------
 Approx.                                    Singlet             Triplet             Ecorr            Total Energy
 DF-MP2                                -0.537810005007     -0.343701562593     -0.881511567600   -264.668865821458
 DF-MP2-F12/3*C(DX,FIX)                -0.635175366867     -0.360650333803     -0.995825700670   -264.783179954528
 DF-MP2-F12/3*C(FIX)                   -0.617607083673     -0.357126041696     -0.974733125369   -264.762087379226
 DF-MP2-F12/3C(FIX)                    -0.617975489985     -0.357156722400     -0.975132212385   -264.762486466242

 SCS-DF-MP2 energies (F_SING= 1.20000  F_TRIP= 0.62222  F_PARALLEL= 0.33333):
 ----------------------------------------------------------------------------
 SCS-DF-MP2                            -0.859230756067   -264.646585009924
 SCS-DF-MP2-F12/3*C(DX,FIX)            -0.986615092385   -264.773969346242
 SCS-DF-MP2-F12/3*C(FIX)               -0.963340259685   -264.750694513542
 SCS-DF-MP2-F12/3C(FIX)                -0.963801437476   -264.751155691333

 Symmetry restored.
 Symmetry transformation completed.

 Number of N-1 electron functions:              12
 Number of N-2 electron functions:              78
 Number of singly external CSFs:               732
 Number of doubly external CSFs:            836016
 Total number of CSFs:                      836749

 Pair and operator lists are different

 Length of J-op  integral file:             462.26 MB
 Length of K-op  integral file:             502.03 MB
 Length of 3-ext integral record:             0.00 MB

 Memory could be reduced to 38.69 Mwords without degradation in triples

 Integral transformation finished. Total CPU:   1.58 sec, npass=  1  Memory used:   6.07 MW

 Reference energy:                   -263.78735425

 Adding F12 terms to K(Cij), methodcc=6,  factor=1.0

 ITER.      SQ.NORM     CORR.ENERGY   TOTAL ENERGY   ENERGY CHANGE        DEN1      VAR(S)    VAR(P)  DIIS     TIME
   1      1.20217873    -0.86344442  -264.65079868     0.01808180     0.04665863  0.72D-02  0.55D-02  1  1    13.92
   2      1.21650990    -0.85925656  -264.64661081     0.00418786    -0.02016111  0.87D-04  0.59D-03  2  2    14.48
   3      1.22187507    -0.85936397  -264.64671823    -0.00010742    -0.00234873  0.13D-03  0.32D-04  3  3    15.44
   4      1.22468800    -0.85923625  -264.64659050     0.00012772    -0.00141369  0.77D-05  0.41D-05  4  4    16.43
   5      1.22572268    -0.85919903  -264.64655329     0.00003722    -0.00036591  0.57D-06  0.29D-06  5  5    17.51
   6      1.22588652    -0.85917208  -264.64652634     0.00002695    -0.00000819  0.41D-07  0.24D-07  6  6    18.55
   7      1.22591663    -0.85916964  -264.64652389     0.00000244    -0.00000631  0.29D-08  0.40D-08  6  4    19.61
   8      1.22591725    -0.85916912  -264.64652337     0.00000052     0.00000187  0.41D-09  0.28D-09  6  1    20.67
   9      1.22591789    -0.85916918  -264.64652344    -0.00000007     0.00000057  0.31D-10  0.24D-10  6  2    21.74

 Norm of t1 vector:      0.10623172      S-energy:    -0.00000004      T1 diagnostic:  0.01533323
                                                                       D1 diagnostic:  0.04536465

 Adding energy correction from Wij-K(Fij), methodcc=6  factor=1.0
 
  CCSD correlation energy              -0.859169184699
  MP2-F12 correction (uncoupled)       -0.092458231516
  C*T doubles correction               -0.001472428805
  f12b correction                       0.015407257043


 Total CPU time for triples:     35.31 sec


 RESULTS
 =======

  Reference energy                   -263.771418882997
  F12 singles correction               -0.015935370861

 F12 singles corrections added to reference energy

  New reference energy               -263.787354253858

  F12a singlet correction              -0.080361118218
  F12a triplet correction              -0.013569542104
  F12a total correction                -0.093930660321

 F12a corrections for ansatz F12/3C(FIX) added to CCSD energy
 
  CCSD-F12a singlet pair energy        -0.641833359843
  CCSD-F12a triplet pair energy        -0.311266444095
  CCSD-F12a correlation energy         -0.953099845020

  Triples (T) contribution             -0.037780509624
  Total correlation energy             -0.990880354644

  CCSD-F12a total energy             -264.740454098877
  CCSD[T]-F12a energy                -264.780776577674
  CCSD-T-F12a energy                 -264.777300593844
 !CCSD(T)-F12a total energy          -264.778234608502

 F12b corrections for ansatz F12/3C(FIX) added to CCSD(T)-F12a energy

  CCSD-F12b singlet pair energy        -0.627652935763
  CCSD-F12b triplet pair energy        -0.310039611132
  CCSD-F12b correlation energy         -0.937692587977

  Triples (T) contribution             -0.037780509624
  Total correlation energy             -0.975473097601

  CCSD-F12b total energy             -264.725046841835
  CCSD[T]-F12b energy                -264.765369320631
  CCSD-T-F12b energy                 -264.761893336801
 !CCSD(T)-F12b total energy          -264.762827351459

 Timing summary (sec):

 STEP                 CPU(USER)    SYS     CPU(TOT)    WALL
 Transformation          1.58      1.21      2.79      6.15
 CCSD iterations         8.67      1.92     10.59     11.47
 Triples                35.31      1.67     36.98     36.97
 MP2-F12                11.49      1.70     13.19     13.19
 F12b energy             0.66      0.03      0.69      0.69

 Program statistics:

 Available memory in ccsd:                99998934
 Min. memory needed in ccsd:               2244783
 Max. memory used in ccsd:                 3005571
 Max. memory used in cckext:               2769663 (10 integral passes)



 **********************************************************************************************************************************
 DATASETS  * FILE   NREC   LENGTH (MB)   RECORD NAMES
              1      20      137.19       500      610      700      900      950      970     1000      129      960     1100   
                                          VAR    BASINP    GEOM    SYMINP    ZMAT    AOBASIS   BASIS     P2S    ABASIS      S 
                                         1400     1410     1200     1210     1080     1600     1650     1700      960(1)  1380   
                                           T        V       H0       H01     AOSYM     SMH    MOLCAS    OPER    ABASIS    JKOP   

              2       5        0.97       700     1000     2100     7360     7350   
                                         GEOM     BASIS     RHF    F12ABS    EF12   

 PROGRAMS   *        TOTAL   CCSD(T)        HF       INT
 CPU TIMES  *        66.03     57.74      1.47      6.74
 REAL TIME  *        81.31 SEC
 DISK USED  *         1.53 GB      
 SF USED    *         1.34 GB      
 GA USED    *         2.40 MB       (max)       0.00 MB       (current)
 **********************************************************************************************************************************

     CCSD(T)-F12        HF-SCF  
   -264.76282735   -263.77141888
 **********************************************************************************************************************************
 Variable memory released
