
 Primary working directories    : /scratch/kee
 Secondary working directories  : /scratch/kee
 Wavefunction directory         : /home/kee/wfu/
 Main file repository           : /scratch/kee/

 ARCHNAME  : Linux/x86_64
 FC        : /opt/intel/composer_xe_2015.0.090/bin/intel64/ifort
 FCVERSION : 15.0.0
 BLASLIB   : -L/opt/intel/mkl/lib/intel64 -lmkl_intel_ilp64 -lmkl_sequential -lmkl_core
 id        : emory

 Nodes     nprocs
 node4        3
 Number of processes for MPI-2 version of Molpro:   nprocs(total)=    4   nprocs(compute)=    3   nprocs(helper)=    1
 ga_uses_ma=false, calling ma_init with nominal heap.
 GA-space will be limited to   8.0 MW (determined by -G option)

 Using customized tuning parameters: mindgm=7; mindgv=32; mindgc=1; mindgr=1; noblas=0; mincuda=1000; minvec=7
 default implementation of scratch files=sf  

 ***,co2h2o
 memory,100,m
 basis avtz
 geomtype = xyz
 geometry = {
 6
       0.00000000
 O     0.00351000    1.16210700    0.00000000
 O     0.00351000   -1.16210700    0.00000000
 O     2.96968000    0.00000000    0.00000000
 H     3.55589800    0.00000000    0.75853100
 H     3.55589800    0.00000000   -0.75853100
 C     0.01968000    0.00000000    0.00000000
 }
 hf
 ccsd(t)-f12
 ---

 Variables initialized (665), CPU time= 0.01 sec
 Commands  initialized (462), CPU time= 0.01 sec, 486 directives.
 Default parameters read. Elapsed time= 0.03 sec

 Checking input...
 Passed
1


                                         ***  PROGRAM SYSTEM MOLPRO  ***
                         Copyright, University College Cardiff Consultants Limited, 2008

                                    Version 2010.1 linked 9 Dec 2014 15:06:28 


 **********************************************************************************************************************************
 LABEL *   co2h2o                                                                        
 Linux-2.6.32-504.el6.x86_64/node4(x86_64) 64 bit mpp version                            DATE: 12-Dec-16          TIME: 14:56:15  
 **********************************************************************************************************************************

 Patch level:      19
 **********************************************************************************************************************************

 Variable memory set to  100000000 words,  buffer space   230000 words

 SETTING BASIS          =    AVTZ
 SETTING GEOMTYPE       =    XYZ

Geometry recognized as XYZ



 Recomputing integrals since basis changed


 Using spherical harmonics

 Library entry O      S aug-cc-pVTZ          selected for orbital group  1
 Library entry O      P aug-cc-pVTZ          selected for orbital group  1
 Library entry O      D aug-cc-pVTZ          selected for orbital group  1
 Library entry O      F aug-cc-pVTZ          selected for orbital group  1
 Library entry H      S aug-cc-pVTZ          selected for orbital group  2
 Library entry H      P aug-cc-pVTZ          selected for orbital group  2
 Library entry H      D aug-cc-pVTZ          selected for orbital group  2
 Library entry C      S aug-cc-pVTZ          selected for orbital group  3
 Library entry C      P aug-cc-pVTZ          selected for orbital group  3
 Library entry C      D aug-cc-pVTZ          selected for orbital group  3
 Library entry C      F aug-cc-pVTZ          selected for orbital group  3

1PROGRAM * SEWARD (Integral evaluation for generally contracted gaussian basis sets)     Author: Roland Lindh, 1990

 Geometry written to block  1 of record 700


 Point group  C2v 



 ATOMIC COORDINATES

 NR  ATOM    CHARGE       X              Y              Z

   1  O       8.00    0.006632939    2.196063965    0.000000000
   2  O       8.00    0.006632939   -2.196063965    0.000000000
   3  O       8.00    5.611881898    0.000000000    0.000000000
   4  H       1.00    6.719673371    0.000000000    1.433415852
   5  H       1.00    6.719673371    0.000000000   -1.433415852
   6  C       6.00    0.037189810    0.000000000    0.000000000

 Bond lengths in Bohr (Angstrom)

 1-6  2.196276545  2-6  2.196276545  3-4  1.811596797  3-5  1.811596797
     (1.162219492)     (1.162219492)     (0.958655737)     (0.958655737)

 Bond angles

  1-6-2  178.40563223   4-3-5  104.60391356

 NUCLEAR CHARGE:                   32
 NUMBER OF PRIMITIVE AOS:         322
 NUMBER OF SYMMETRY AOS:          282
 NUMBER OF CONTRACTIONS:          230   (  84A1  +  59B1  +  54B2  +  33A2  )
 NUMBER OF CORE ORBITALS:           4   (   3A1  +   1B1  +   0B2  +   0A2  )
 NUMBER OF VALENCE ORBITALS:       18   (   8A1  +   5B1  +   4B2  +   1A2  )


 NUCLEAR REPULSION ENERGY  103.53101076


 Eigenvalues of metric

         1 0.260E-03 0.337E-03 0.882E-03 0.965E-03 0.179E-02 0.301E-02 0.321E-02 0.351E-02
         2 0.341E-03 0.832E-03 0.174E-02 0.317E-02 0.458E-02 0.663E-02 0.135E-01 0.205E-01
         3 0.335E-03 0.156E-02 0.311E-02 0.393E-02 0.615E-02 0.800E-02 0.127E-01 0.139E-01
         4 0.346E-02 0.121E-01 0.294E-01 0.358E-01 0.548E-01 0.687E-01 0.104E+00 0.139E+00


 Contracted 2-electron integrals neglected if value below      1.0D-11
 AO integral compression algorithm  1   Integral accuracy      1.0D-11

     388.235 MB (compressed) written to integral file ( 43.5%)

     Node minimum: 121.897 MB, node maximum: 142.082 MB


 NUMBER OF SORTED TWO-ELECTRON INTEGRALS:   29979201.     BUFFER LENGTH:  32768
 NUMBER OF SEGMENTS:   2  SEGMENT LENGTH:   15996954      RECORD LENGTH: 524288

 Memory used in sort:      16.55 MW

 SORT1 READ   111555100. AND WROTE    26942781. INTEGRALS IN     78 RECORDS. CPU TIME:     2.75 SEC, REAL TIME:     3.10 SEC
 SORT2 READ    80824703. AND WROTE    89930217. INTEGRALS IN   1422 RECORDS. CPU TIME:     0.70 SEC, REAL TIME:     0.95 SEC

 Node minimum:    29974277.  Node maximum:    29979201. integrals

 OPERATOR DM      FOR CENTER  0  COORDINATES:    0.000000    0.000000    0.000000


 **********************************************************************************************************************************
 DATASETS  * FILE   NREC   LENGTH (MB)   RECORD NAMES
              1      18        3.23       500      610      700      900      950      970     1000      129      960     1100   
                                          VAR    BASINP    GEOM    SYMINP    ZMAT    AOBASIS   BASIS     P2S    ABASIS      S 
                                         1400     1410     1200     1210     1080     1600     1650     1700   
                                           T        V       H0       H01     AOSYM     SMH    MOLCAS    OPER   

 PROGRAMS   *        TOTAL       INT
 CPU TIMES  *         5.98      5.90
 REAL TIME  *         6.80 SEC
 DISK USED  *         1.35 GB      
 GA USED    *         0.00 MB       (max)       0.00 MB       (current)
 **********************************************************************************************************************************

1PROGRAM * RHF-SCF (CLOSED SHELL)       Authors: W. Meyer, H.-J. Werner


 NUMBER OF ELECTRONS:      16+   16-
 CONVERGENCE THRESHOLDS:    1.00E-05 (Density)    1.00E-07 (Energy)
 MAX. NUMBER OF ITERATIONS:       60
 INTERPOLATION TYPE:            DIIS
 INTERPOLATION STEPS:              2 (START)      1 (STEP)
 LEVEL SHIFTS:                  0.00 (CLOSED)  0.00 (OPEN) 



 Orbital guess generated from atomic densities. Full valence occupancy:   11   6   4   1

 Molecular orbital dump at record        2100.2

 Initial alpha occupancy:   8   5   2   1
 Initial beta  occupancy:   8   5   2   1
 Wave function symmetry:    1

 ITERATION    DDIFF          GRAD             ENERGY        2-EL.EN.            DIPOLE MOMENTS         DIIS
    1      0.000D+00      0.000D+00      -263.66644718    403.438789    1.20581    0.00000    0.00000    0
    2      0.000D+00      0.873D-02      -263.73038147    398.699717    0.85299    0.00000    0.00000    1
    3      0.141D-01      0.583D-02      -263.77071637    401.194300    0.92426    0.00000    0.00000    2
    4      0.572D-02      0.572D-03      -263.77121347    401.012434    0.92482    0.00000    0.00000    3
    5      0.699D-03      0.169D-03      -263.77127229    400.999414    0.92007    0.00000    0.00000    4
    6      0.263D-03      0.693D-04      -263.77127999    401.017031    0.92086    0.00000    0.00000    5
    7      0.878D-04      0.160D-04      -263.77128074    401.008420    0.92048    0.00000    0.00000    6
    8      0.288D-04      0.355D-05      -263.77128079    401.009810    0.92051    0.00000    0.00000    7
    9      0.758D-05      0.120D-05      -263.77128079    401.009565    0.92049    0.00000    0.00000    0

 Final occupancy:   8   5   2   1

 !RHF STATE 1.1 Energy               -263.771280789166
 Nuclear energy                       103.53101076
 One-electron energy                 -567.80707419
 Two-electron energy                  200.50478264
 Virial quotient                       -1.00179620
 !RHF STATE 1.1 Dipole moment           0.92049064     0.00000000     0.00000000
 Dipole moment /Debye                   2.33950060     0.00000000     0.00000000

 Orbital energies:

         1.1          2.1          3.1          4.1          5.1          6.1          7.1          8.1          9.1         10.1
    -20.631628   -20.576898   -11.441696    -1.509664    -1.363455    -0.781016    -0.695409    -0.595757     0.025191     0.064991

         1.2          2.2          3.2          4.2          5.2          6.2          7.2
    -20.631674    -1.456737    -0.723476    -0.529087    -0.515980     0.086864     0.165675

         1.3          2.3          3.3          4.3
     -0.727791    -0.694272     0.045311     0.090118

         1.4          2.4          3.4
     -0.524215     0.170088     0.270210


 **********************************************************************************************************************************
 DATASETS  * FILE   NREC   LENGTH (MB)   RECORD NAMES
              1      18        3.25       500      610      700      900      950      970     1000      129      960     1100   
                                          VAR    BASINP    GEOM    SYMINP    ZMAT    AOBASIS   BASIS     P2S    ABASIS      S 
                                         1400     1410     1200     1210     1080     1600     1650     1700   
                                           T        V       H0       H01     AOSYM     SMH    MOLCAS    OPER   

              2       3        0.67       700     1000     2100   
                                         GEOM     BASIS     RHF  

 PROGRAMS   *        TOTAL        HF       INT
 CPU TIMES  *         7.36      1.38      5.90
 REAL TIME  *         8.48 SEC
 DISK USED  *         1.36 GB      
 SF USED    *         0.06 MB      
 GA USED    *         0.00 MB       (max)       0.00 MB       (current)
 **********************************************************************************************************************************


1PROGRAM * CCSD (Closed-shell coupled cluster)     Authors: C. Hampel, H.-J. Werner, 1991, M. Deegan, P.J. Knowles, 1992

                                  CCSD-F12 implementation by  H.-J. Werner, 2007

                   Density fitting integral evaluation by F.R. Manby, 2003,2007, G. Knizia, 2010

 Basis set CC-PVTZ/JKFIT generated.      Number of basis functions:   376 
 Basis set AUG-CC-PVTZ/MP2FIT generated. Number of basis functions:   516 

 Convergence thresholds:  THRVAR = 1.00D-08  THRDEN = 1.00D-06

 CCSD(T)     terms to be evaluated (factor= 1.000)


 Number of core orbitals:           4 (   3   1   0   0 )
 Number of closed-shell orbitals:  12 (   5   4   2   1 )
 Number of external orbitals:     214 (  76  54  52  32 )

 Molecular orbitals read from record     2100.2  Type=RHF/CANONICAL (state 1.1)

 MP2-F12 correlation treatment (H.-J. Werner, 2006)
 --------------------------------------------------

 Using MP2-F12 with ansatz 3C(FIX)

 Using projected zeroth-order Hamiltonian (+Z)

 FOCKRIB=T FOCKRIC=T FOCKRIP=T CABSP=T CABSA=T CABSK=T CABSF=T GBC=F EBC=F DMAT=T NOFIK=T NOPAO=1 SOLVE=-1  USEPAO=0
 EXCH_A= T EXCH_B= F EXCH_C= F EXCH_P= F
 
 Geminal basis:    OPTFULL  GEM_TYPE=SLATER  BETA=1.0  NGEM=6

 Optimizing Gaussian exponents for each gem_beta

 Geminal optimization for beta= 1.0000
 Weight function:   m=0, omega= 1.4646

 Augmented Hessian optimization of geminal fit. Trust ratio= 0.40000
 Convergence reached after   2 iterations. Final gradient= 8.24D-16, Step= 4.32D-06, Delta= 1.28D-09
 
 Alpha:                 0.19532     0.81920     2.85917     9.50073    35.69989   197.79328
 Coeff:                 0.27070     0.30552     0.18297     0.10986     0.06810     0.04224
 

 Symmetry turned off. Reference energy:       -263.771280789166

 All pairs explicitly correlated. Number of r12-pairs:           78
 
 AO(A)-basis ORBITAL           loaded. Number of functions:     230
 RI(R)-basis CC-PVTZ/JKFIT     loaded. Number of functions:     376
 DF-basis CC-PVTZ/JKFIT        loaded. Number of functions:     376

 Screening thresholds:   THRAO=  1.00D-10  THRMO=  1.00D-09  THRPROD=  1.00D-09
                         THRSW=  1.00D-05  THROV=  1.00D-12  THRF12=   1.00D-08

 CPU time for Fock operators                      1.07 sec
 
 Construction of ABS:
 Smallest eigenvalue of S          2.52E-04  (threshold= 1.00E-08)
 Ratio eigmin/eigmax               1.79E-06  (threshold= 1.00E-09)
 Smallest eigenvalue of S kept     2.52E-04  (threshold= 2.52E-04, 0 functions deleted, 376 kept)
 
 Construction of CABS:
 Smallest eigenvalue of S          2.27E-08  (threshold= 1.00E-08)
 Ratio eigmin/eigmax               2.27E-08  (threshold= 1.00E-09)
 Smallest eigenvalue of S kept     2.27E-08  (threshold= 2.27E-08, 0 functions deleted, 376 kept)
 
 CPU time for CABS singles                        0.18 sec

 CABS-singles contribution of  -0.01594982 patched into reference energy.
 New reference energy        -263.78723061
 
 AO(A)-basis ORBITAL           loaded. Number of functions:     230
 RI(R)-basis CC-PVTZ/JKFIT     loaded. Number of functions:     376
 DF-basis AUG-CC-PVTZ/MP2FIT   loaded. Number of functions:     516

 Screening thresholds:   THRAO=  1.00D-10  THRMO=  1.00D-09  THRPROD=  1.00D-09
                         THRSW=  1.00D-05  THROV=  1.00D-12  THRF12=   1.00D-08

 CPU time for 3-index integral evaluation         3.24 sec
 CPU time for first  half transformation          0.22 sec (13198.9 MFLOP/sec)
 CPU time for second half transformation          0.05 sec ( 2080.8 MFLOP/sec)
 CPU time for sorting                             0.18 sec
 CPU time for fitting                             0.05 sec (27861.0 MFLOP/sec)
 CPU time for tilde quantities                    0.12 sec (15407.3 MFLOP/sec)
 CPU time for assembly                            0.89 sec (26492.6 MFLOP/sec)
 CPU time for tranop_f12                          1.28 sec (23410.8 MFLOP/sec)
 CPU time for f12 integrals (total)               8.25 sec
 F12-matrices built in  3 passes.
 F12-matrices built in  3 passes.
 F12-matrices built in  3 passes.
 F12-matrices built in  3 passes.
 FC-matrix built in  3 passes.
 CPU time for f12 matrices (total)                0.48 sec

 Diagonal F12 approximation with fixed coefficients:  TSING= 0.500,  TTRIP= 0.250 (scaled by -1/beta)

 DF-MP2-F12 energy corrections:
 ------------------------------
 Approx.                                    Singlet             Triplet             Total
 DF-MP2-F12/3*C(DX,FIX)                -0.097346635290     -0.016969478444     -0.114316113734
 DF-MP2-F12/3*C(FIX)                   -0.079777029991     -0.013450618331     -0.093227648322
 DF-MP2-F12/3C(FIX)                    -0.080148224654     -0.013485474857     -0.093633699511

 DF-MP2-F12 correlation energies:
 --------------------------------
 Approx.                                    Singlet             Triplet             Ecorr            Total Energy
 DF-MP2                                -0.537904748069     -0.344187680564     -0.882092428632   -264.669323035662
 DF-MP2-F12/3*C(DX,FIX)                -0.635251383359     -0.361157159007     -0.996408542366   -264.783639149396
 DF-MP2-F12/3*C(FIX)                   -0.617681778060     -0.357638298895     -0.975320076955   -264.762550683984
 DF-MP2-F12/3C(FIX)                    -0.618052972723     -0.357673155420     -0.975726128143   -264.762956735173

 SCS-DF-MP2 energies (F_SING= 1.20000  F_TRIP= 0.62222  F_PARALLEL= 0.33333):
 ----------------------------------------------------------------------------
 SCS-DF-MP2                            -0.859646921144   -264.646877528174
 SCS-DF-MP2-F12/3*C(DX,FIX)            -0.987021670080   -264.774252277109
 SCS-DF-MP2-F12/3*C(FIX)               -0.963748630762   -264.750979237791
 SCS-DF-MP2-F12/3C(FIX)                -0.964215752863   -264.751446359892

 Symmetry restored.
 Symmetry transformation completed.

 Number of N-1 electron functions:              12
 Number of N-2 electron functions:              78
 Number of singly external CSFs:               732
 Number of doubly external CSFs:            836016
 Total number of CSFs:                      836749

 Pair and operator lists are different

 Length of J-op  integral file:             462.26 MB
 Length of K-op  integral file:             502.03 MB
 Length of 3-ext integral record:             0.00 MB

 Memory could be reduced to 38.69 Mwords without degradation in triples

 Integral transformation finished. Total CPU:   1.48 sec, npass=  1  Memory used:   6.07 MW

 Reference energy:                   -263.78723061

 Adding F12 terms to K(Cij), methodcc=6,  factor=1.0

 ITER.      SQ.NORM     CORR.ENERGY   TOTAL ENERGY   ENERGY CHANGE        DEN1      VAR(S)    VAR(P)  DIIS     TIME
   1      1.20218362    -0.86398439  -264.65121500     0.01812177     0.04669052  0.72D-02  0.55D-02  1  1    12.86
   2      1.21653900    -0.85980682  -264.64703743     0.00417757    -0.02019493  0.87D-04  0.59D-03  2  2    13.88
   3      1.22189217    -0.85991986  -264.64715047    -0.00011304    -0.00232234  0.13D-03  0.32D-04  3  3    14.88
   4      1.22470900    -0.85979163  -264.64702223     0.00012824    -0.00141386  0.78D-05  0.41D-05  4  4    15.89
   5      1.22574723    -0.85975474  -264.64698535     0.00003689    -0.00036561  0.59D-06  0.29D-06  5  5    16.91
   6      1.22591277    -0.85972772  -264.64695832     0.00002702    -0.00000827  0.43D-07  0.24D-07  6  6    17.92
   7      1.22594370    -0.85972523  -264.64695584     0.00000248    -0.00000640  0.34D-08  0.41D-08  6  4    18.95
   8      1.22594264    -0.85972505  -264.64695565     0.00000019     0.00000328  0.55D-09  0.33D-09  6  3    19.99
   9      1.22594562    -0.85972468  -264.64695529     0.00000036    -0.00000111  0.45D-10  0.25D-10  6  1    21.03

 Norm of t1 vector:      0.10642612      S-energy:     0.00000017      T1 diagnostic:  0.01536129
                                                                       D1 diagnostic:  0.04564911

 Adding energy correction from Wij-K(Fij), methodcc=6  factor=1.0
 
  CCSD correlation energy              -0.859724684997
  MP2-F12 correction (uncoupled)       -0.092470179563
  C*T doubles correction               -0.001471088003
  f12b correction                       0.015410738072


 Total CPU time for triples:     26.39 sec


 RESULTS
 =======

  Reference energy                   -263.771280789166
  F12 singles correction               -0.015949817863

 F12 singles corrections added to reference energy

  New reference energy               -263.787230607029

  F12a singlet correction              -0.080343579914
  F12a triplet correction              -0.013597687652
  F12a total correction                -0.093941267566

 F12a corrections for ansatz F12/3C(FIX) added to CCSD energy
 
  CCSD-F12a singlet pair energy        -0.641838990954
  CCSD-F12a triplet pair energy        -0.311827135391
  CCSD-F12a correlation energy         -0.953665952563

  Triples (T) contribution             -0.037882074978
  Total correlation energy             -0.991548027541

  CCSD-F12a total energy             -264.740896559592
  CCSD[T]-F12a energy                -264.781322769994
  CCSD-T-F12a energy                 -264.777845582731
 !CCSD(T)-F12a total energy          -264.778778634570

 F12b corrections for ansatz F12/3C(FIX) added to CCSD(T)-F12a energy

  CCSD-F12b singlet pair energy        -0.627658425849
  CCSD-F12b triplet pair energy        -0.310596962424
  CCSD-F12b correlation energy         -0.938255214491

  Triples (T) contribution             -0.037882074978
  Total correlation energy             -0.976137289469

  CCSD-F12b total energy             -264.725485821520
  CCSD[T]-F12b energy                -264.765912031922
  CCSD-T-F12b energy                 -264.762434844660
 !CCSD(T)-F12b total energy          -264.763367896498

 Timing summary (sec):

 STEP                 CPU(USER)    SYS     CPU(TOT)    WALL
 Transformation          1.49      0.22      1.71      1.70
 CCSD iterations         9.14      0.72      9.86      9.86
 Triples                26.39      0.75     27.14     27.55
 MP2-F12                10.40      1.23     11.63     12.17
 F12b energy             0.61      0.02      0.63      0.63

 Program statistics:

 Available memory in ccsd:                99998934
 Min. memory needed in ccsd:               2244783
 Max. memory used in ccsd:                 3005571
 Max. memory used in cckext:               2769663 (10 integral passes)



 **********************************************************************************************************************************
 DATASETS  * FILE   NREC   LENGTH (MB)   RECORD NAMES
              1      20      137.19       500      610      700      900      950      970     1000      129      960     1100   
                                          VAR    BASINP    GEOM    SYMINP    ZMAT    AOBASIS   BASIS     P2S    ABASIS      S 
                                         1400     1410     1200     1210     1080     1600     1650     1700      960(1)  1380   
                                           T        V       H0       H01     AOSYM     SMH    MOLCAS    OPER    ABASIS    JKOP   

              2       5        0.97       700     1000     2100     7360     7350   
                                         GEOM     BASIS     RHF    F12ABS    EF12   

 PROGRAMS   *        TOTAL   CCSD(T)        HF       INT
 CPU TIMES  *        55.42     48.06      1.38      5.90
 REAL TIME  *        60.66 SEC
 DISK USED  *         1.59 GB      
 SF USED    *         1.34 GB      
 GA USED    *         2.40 MB       (max)       0.00 MB       (current)
 **********************************************************************************************************************************

     CCSD(T)-F12        HF-SCF  
   -264.76336790   -263.77128079
 **********************************************************************************************************************************
 Variable memory released
