
 Primary working directories    : /scratch/kee
 Secondary working directories  : /scratch/kee
 Wavefunction directory         : /home/kee/wfu/
 Main file repository           : /scratch/kee/

 ARCHNAME  : Linux/x86_64
 FC        : /opt/intel/composer_xe_2015.0.090/bin/intel64/ifort
 FCVERSION : 15.0.0
 BLASLIB   : -L/opt/intel/mkl/lib/intel64 -lmkl_intel_ilp64 -lmkl_sequential -lmkl_core
 id        : emory

 Nodes     nprocs
 node4        3
 Number of processes for MPI-2 version of Molpro:   nprocs(total)=    4   nprocs(compute)=    3   nprocs(helper)=    1
 ga_uses_ma=false, calling ma_init with nominal heap.
 GA-space will be limited to   8.0 MW (determined by -G option)

 Using customized tuning parameters: mindgm=7; mindgv=32; mindgc=1; mindgr=1; noblas=0; mincuda=1000; minvec=7
 default implementation of scratch files=sf  

 ***,co2h2o
 memory,100,m
 basis avtz
 geomtype = xyz
 geometry = {
 6
       0.00000000
 O     0.00351000    1.16210700    0.00000000
 O     0.00351000   -1.16210700    0.00000000
 O     3.01968000    0.00000000    0.00000000
 H     3.60589800    0.00000000    0.75853100
 H     3.60589800    0.00000000   -0.75853100
 C     0.01968000    0.00000000    0.00000000
 }
 hf
 ccsd(t)-f12
 ---

 Variables initialized (665), CPU time= 0.01 sec
 Commands  initialized (462), CPU time= 0.01 sec, 486 directives.
 Default parameters read. Elapsed time= 0.04 sec

 Checking input...
 Passed
1


                                         ***  PROGRAM SYSTEM MOLPRO  ***
                         Copyright, University College Cardiff Consultants Limited, 2008

                                    Version 2010.1 linked 9 Dec 2014 15:06:28 


 **********************************************************************************************************************************
 LABEL *   co2h2o                                                                        
 Linux-2.6.32-504.el6.x86_64/node4(x86_64) 64 bit mpp version                            DATE: 12-Dec-16          TIME: 14:57:17  
 **********************************************************************************************************************************

 Patch level:      19
 **********************************************************************************************************************************

 Variable memory set to  100000000 words,  buffer space   230000 words

 SETTING BASIS          =    AVTZ
 SETTING GEOMTYPE       =    XYZ

Geometry recognized as XYZ



 Recomputing integrals since basis changed


 Using spherical harmonics

 Library entry O      S aug-cc-pVTZ          selected for orbital group  1
 Library entry O      P aug-cc-pVTZ          selected for orbital group  1
 Library entry O      D aug-cc-pVTZ          selected for orbital group  1
 Library entry O      F aug-cc-pVTZ          selected for orbital group  1
 Library entry H      S aug-cc-pVTZ          selected for orbital group  2
 Library entry H      P aug-cc-pVTZ          selected for orbital group  2
 Library entry H      D aug-cc-pVTZ          selected for orbital group  2
 Library entry C      S aug-cc-pVTZ          selected for orbital group  3
 Library entry C      P aug-cc-pVTZ          selected for orbital group  3
 Library entry C      D aug-cc-pVTZ          selected for orbital group  3
 Library entry C      F aug-cc-pVTZ          selected for orbital group  3

1PROGRAM * SEWARD (Integral evaluation for generally contracted gaussian basis sets)     Author: Roland Lindh, 1990

 Geometry written to block  1 of record 700


 Point group  C2v 



 ATOMIC COORDINATES

 NR  ATOM    CHARGE       X              Y              Z

   1  O       8.00    0.006632939    2.196063965    0.000000000
   2  O       8.00    0.006632939   -2.196063965    0.000000000
   3  O       8.00    5.706368205    0.000000000    0.000000000
   4  H       1.00    6.814159678    0.000000000    1.433415852
   5  H       1.00    6.814159678    0.000000000   -1.433415852
   6  C       6.00    0.037189810    0.000000000    0.000000000

 Bond lengths in Bohr (Angstrom)

 1-6  2.196276545  2-6  2.196276545  3-4  1.811596797  3-5  1.811596797
     (1.162219492)     (1.162219492)     (0.958655737)     (0.958655737)

 Bond angles

  1-6-2  178.40563223   4-3-5  104.60391356

 NUCLEAR CHARGE:                   32
 NUMBER OF PRIMITIVE AOS:         322
 NUMBER OF SYMMETRY AOS:          282
 NUMBER OF CONTRACTIONS:          230   (  84A1  +  59B1  +  54B2  +  33A2  )
 NUMBER OF CORE ORBITALS:           4   (   3A1  +   1B1  +   0B2  +   0A2  )
 NUMBER OF VALENCE ORBITALS:       18   (   8A1  +   5B1  +   4B2  +   1A2  )


 NUCLEAR REPULSION ENERGY  103.00389156


 Eigenvalues of metric

         1 0.267E-03 0.343E-03 0.883E-03 0.102E-02 0.183E-02 0.302E-02 0.322E-02 0.356E-02
         2 0.341E-03 0.836E-03 0.174E-02 0.317E-02 0.462E-02 0.666E-02 0.137E-01 0.206E-01
         3 0.340E-03 0.157E-02 0.311E-02 0.395E-02 0.615E-02 0.809E-02 0.127E-01 0.140E-01
         4 0.346E-02 0.122E-01 0.294E-01 0.358E-01 0.549E-01 0.686E-01 0.104E+00 0.139E+00


 Contracted 2-electron integrals neglected if value below      1.0D-11
 AO integral compression algorithm  1   Integral accuracy      1.0D-11

     385.090 MB (compressed) written to integral file ( 43.1%)

     Node minimum: 117.441 MB, node maximum: 143.655 MB


 NUMBER OF SORTED TWO-ELECTRON INTEGRALS:   29979201.     BUFFER LENGTH:  32768
 NUMBER OF SEGMENTS:   2  SEGMENT LENGTH:   15996954      RECORD LENGTH: 524288

 Memory used in sort:      16.55 MW

 SORT1 READ   111555100. AND WROTE    26776097. INTEGRALS IN     78 RECORDS. CPU TIME:     2.72 SEC, REAL TIME:     3.06 SEC
 SORT2 READ    80331955. AND WROTE    89930217. INTEGRALS IN   1419 RECORDS. CPU TIME:     0.72 SEC, REAL TIME:     0.99 SEC

 Node minimum:    29974277.  Node maximum:    29979201. integrals

 OPERATOR DM      FOR CENTER  0  COORDINATES:    0.000000    0.000000    0.000000


 **********************************************************************************************************************************
 DATASETS  * FILE   NREC   LENGTH (MB)   RECORD NAMES
              1      18        3.23       500      610      700      900      950      970     1000      129      960     1100   
                                          VAR    BASINP    GEOM    SYMINP    ZMAT    AOBASIS   BASIS     P2S    ABASIS      S 
                                         1400     1410     1200     1210     1080     1600     1650     1700   
                                           T        V       H0       H01     AOSYM     SMH    MOLCAS    OPER   

 PROGRAMS   *        TOTAL       INT
 CPU TIMES  *         5.95      5.87
 REAL TIME  *         6.81 SEC
 DISK USED  *         1.34 GB      
 GA USED    *         0.00 MB       (max)       0.00 MB       (current)
 **********************************************************************************************************************************

1PROGRAM * RHF-SCF (CLOSED SHELL)       Authors: W. Meyer, H.-J. Werner


 NUMBER OF ELECTRONS:      16+   16-
 CONVERGENCE THRESHOLDS:    1.00E-05 (Density)    1.00E-07 (Energy)
 MAX. NUMBER OF ITERATIONS:       60
 INTERPOLATION TYPE:            DIIS
 INTERPOLATION STEPS:              2 (START)      1 (STEP)
 LEVEL SHIFTS:                  0.00 (CLOSED)  0.00 (OPEN) 



 Orbital guess generated from atomic densities. Full valence occupancy:   11   6   4   1

 Molecular orbital dump at record        2100.2

 Initial alpha occupancy:   8   5   2   1
 Initial beta  occupancy:   8   5   2   1
 Wave function symmetry:    1

 ITERATION    DDIFF          GRAD             ENERGY        2-EL.EN.            DIPOLE MOMENTS         DIIS
    1      0.000D+00      0.000D+00      -263.66632492    402.360464    1.20260    0.00000    0.00000    0
    2      0.000D+00      0.874D-02      -263.73031964    397.621584    0.84472    0.00000    0.00000    1
    3      0.141D-01      0.584D-02      -263.77080710    400.123277    0.91852    0.00000    0.00000    2
    4      0.573D-02      0.571D-03      -263.77130370    399.939226    0.91936    0.00000    0.00000    3
    5      0.699D-03      0.169D-03      -263.77136243    399.927204    0.91466    0.00000    0.00000    4
    6      0.263D-03      0.691D-04      -263.77137010    399.944648    0.91547    0.00000    0.00000    5
    7      0.877D-04      0.161D-04      -263.77137085    399.936035    0.91509    0.00000    0.00000    6
    8      0.287D-04      0.356D-05      -263.77137089    399.937418    0.91512    0.00000    0.00000    7
    9      0.759D-05      0.120D-05      -263.77137090    399.937176    0.91510    0.00000    0.00000    0

 Final occupancy:   8   5   2   1

 !RHF STATE 1.1 Energy               -263.771370897445
 Nuclear energy                       103.00389156
 One-electron energy                 -566.74385055
 Two-electron energy                  199.96858809
 Virial quotient                       -1.00180508
 !RHF STATE 1.1 Dipole moment           0.91509594     0.00000000     0.00000000
 Dipole moment /Debye                   2.32578953     0.00000000     0.00000000

 Orbital energies:

         1.1          2.1          3.1          4.1          5.1          6.1          7.1          8.1          9.1         10.1
    -20.632337   -20.576582   -11.442299    -1.510306    -1.362982    -0.781608    -0.695641    -0.595517     0.025322     0.064732

         1.2          2.2          3.2          4.2          5.2          6.2          7.2
    -20.632382    -1.457379    -0.724066    -0.528730    -0.516440     0.086854     0.165548

         1.3          2.3          3.3          4.3
     -0.727329    -0.694902     0.045358     0.089868

         1.4          2.4          3.4
     -0.524836     0.170066     0.269879


 **********************************************************************************************************************************
 DATASETS  * FILE   NREC   LENGTH (MB)   RECORD NAMES
              1      18        3.25       500      610      700      900      950      970     1000      129      960     1100   
                                          VAR    BASINP    GEOM    SYMINP    ZMAT    AOBASIS   BASIS     P2S    ABASIS      S 
                                         1400     1410     1200     1210     1080     1600     1650     1700   
                                           T        V       H0       H01     AOSYM     SMH    MOLCAS    OPER   

              2       3        0.67       700     1000     2100   
                                         GEOM     BASIS     RHF  

 PROGRAMS   *        TOTAL        HF       INT
 CPU TIMES  *         7.35      1.40      5.87
 REAL TIME  *         8.35 SEC
 DISK USED  *         1.36 GB      
 SF USED    *         0.06 MB      
 GA USED    *         0.00 MB       (max)       0.00 MB       (current)
 **********************************************************************************************************************************


1PROGRAM * CCSD (Closed-shell coupled cluster)     Authors: C. Hampel, H.-J. Werner, 1991, M. Deegan, P.J. Knowles, 1992

                                  CCSD-F12 implementation by  H.-J. Werner, 2007

                   Density fitting integral evaluation by F.R. Manby, 2003,2007, G. Knizia, 2010

 Basis set CC-PVTZ/JKFIT generated.      Number of basis functions:   376 
 Basis set AUG-CC-PVTZ/MP2FIT generated. Number of basis functions:   516 

 Convergence thresholds:  THRVAR = 1.00D-08  THRDEN = 1.00D-06

 CCSD(T)     terms to be evaluated (factor= 1.000)


 Number of core orbitals:           4 (   3   1   0   0 )
 Number of closed-shell orbitals:  12 (   5   4   2   1 )
 Number of external orbitals:     214 (  76  54  52  32 )

 Molecular orbitals read from record     2100.2  Type=RHF/CANONICAL (state 1.1)

 MP2-F12 correlation treatment (H.-J. Werner, 2006)
 --------------------------------------------------

 Using MP2-F12 with ansatz 3C(FIX)

 Using projected zeroth-order Hamiltonian (+Z)

 FOCKRIB=T FOCKRIC=T FOCKRIP=T CABSP=T CABSA=T CABSK=T CABSF=T GBC=F EBC=F DMAT=T NOFIK=T NOPAO=1 SOLVE=-1  USEPAO=0
 EXCH_A= T EXCH_B= F EXCH_C= F EXCH_P= F
 
 Geminal basis:    OPTFULL  GEM_TYPE=SLATER  BETA=1.0  NGEM=6

 Optimizing Gaussian exponents for each gem_beta

 Geminal optimization for beta= 1.0000
 Weight function:   m=0, omega= 1.4646

 Augmented Hessian optimization of geminal fit. Trust ratio= 0.40000
 Convergence reached after   2 iterations. Final gradient= 8.24D-16, Step= 4.32D-06, Delta= 1.28D-09
 
 Alpha:                 0.19532     0.81920     2.85917     9.50073    35.69989   197.79328
 Coeff:                 0.27070     0.30552     0.18297     0.10986     0.06810     0.04224
 

 Symmetry turned off. Reference energy:       -263.771370897445

 All pairs explicitly correlated. Number of r12-pairs:           78
 
 AO(A)-basis ORBITAL           loaded. Number of functions:     230
 RI(R)-basis CC-PVTZ/JKFIT     loaded. Number of functions:     376
 DF-basis CC-PVTZ/JKFIT        loaded. Number of functions:     376

 Screening thresholds:   THRAO=  1.00D-10  THRMO=  1.00D-09  THRPROD=  1.00D-09
                         THRSW=  1.00D-05  THROV=  1.00D-12  THRF12=   1.00D-08

 CPU time for Fock operators                      1.07 sec
 
 Construction of ABS:
 Smallest eigenvalue of S          2.52E-04  (threshold= 1.00E-08)
 Ratio eigmin/eigmax               1.80E-06  (threshold= 1.00E-09)
 Smallest eigenvalue of S kept     2.52E-04  (threshold= 2.52E-04, 0 functions deleted, 376 kept)
 
 Construction of CABS:
 Smallest eigenvalue of S          2.28E-08  (threshold= 1.00E-08)
 Ratio eigmin/eigmax               2.28E-08  (threshold= 1.00E-09)
 Smallest eigenvalue of S kept     2.28E-08  (threshold= 2.28E-08, 0 functions deleted, 376 kept)
 
 CPU time for CABS singles                        0.18 sec

 CABS-singles contribution of  -0.01594764 patched into reference energy.
 New reference energy        -263.78731854
 
 AO(A)-basis ORBITAL           loaded. Number of functions:     230
 RI(R)-basis CC-PVTZ/JKFIT     loaded. Number of functions:     376
 DF-basis AUG-CC-PVTZ/MP2FIT   loaded. Number of functions:     516

 Screening thresholds:   THRAO=  1.00D-10  THRMO=  1.00D-09  THRPROD=  1.00D-09
                         THRSW=  1.00D-05  THROV=  1.00D-12  THRF12=   1.00D-08

 CPU time for 3-index integral evaluation         3.11 sec
 CPU time for first  half transformation          0.37 sec ( 7412.4 MFLOP/sec)
 CPU time for second half transformation          0.02 sec ( 5581.8 MFLOP/sec)
 CPU time for sorting                             0.19 sec
 CPU time for fitting                             0.05 sec (27861.0 MFLOP/sec)
 CPU time for tilde quantities                    0.06 sec (30814.7 MFLOP/sec)
 CPU time for assembly                            0.88 sec (26854.0 MFLOP/sec)
 CPU time for tranop_f12                          0.97 sec (31331.9 MFLOP/sec)
 CPU time for f12 integrals (total)               7.93 sec
 F12-matrices built in  3 passes.
 F12-matrices built in  3 passes.
 F12-matrices built in  3 passes.
 F12-matrices built in  3 passes.
 FC-matrix built in  3 passes.
 CPU time for f12 matrices (total)                0.56 sec

 Diagonal F12 approximation with fixed coefficients:  TSING= 0.500,  TTRIP= 0.250 (scaled by -1/beta)

 DF-MP2-F12 energy corrections:
 ------------------------------
 Approx.                                    Singlet             Triplet             Total
 DF-MP2-F12/3*C(DX,FIX)                -0.097348614065     -0.016964894556     -0.114313508621
 DF-MP2-F12/3*C(FIX)                   -0.079780050000     -0.013445282124     -0.093225332124
 DF-MP2-F12/3C(FIX)                    -0.080150896682     -0.013479412945     -0.093630309628

 DF-MP2-F12 correlation energies:
 --------------------------------
 Approx.                                    Singlet             Triplet             Ecorr            Total Energy
 DF-MP2                                -0.537885843116     -0.344086434584     -0.881972277700   -264.669290816832
 DF-MP2-F12/3*C(DX,FIX)                -0.635234457181     -0.361051329140     -0.996285786321   -264.783604325453
 DF-MP2-F12/3*C(FIX)                   -0.617665893116     -0.357531716707     -0.975197609823   -264.762516148956
 DF-MP2-F12/3C(FIX)                    -0.618036739798     -0.357565847529     -0.975602587327   -264.762921126459

 SCS-DF-MP2 energies (F_SING= 1.20000  F_TRIP= 0.62222  F_PARALLEL= 0.33333):
 ----------------------------------------------------------------------------
 SCS-DF-MP2                            -0.859561237702   -264.646879776835
 SCS-DF-MP2-F12/3*C(DX,FIX)            -0.986935508971   -264.774254048103
 SCS-DF-MP2-F12/3*C(FIX)               -0.963663251024   -264.750981790156
 SCS-DF-MP2-F12/3C(FIX)                -0.964129503998   -264.751448043130

 Symmetry restored.
 Symmetry transformation completed.

 Number of N-1 electron functions:              12
 Number of N-2 electron functions:              78
 Number of singly external CSFs:               732
 Number of doubly external CSFs:            836016
 Total number of CSFs:                      836749

 Pair and operator lists are different

 Length of J-op  integral file:             462.26 MB
 Length of K-op  integral file:             502.03 MB
 Length of 3-ext integral record:             0.00 MB

 Memory could be reduced to 38.69 Mwords without degradation in triples

 Integral transformation finished. Total CPU:   1.53 sec, npass=  1  Memory used:   6.07 MW

 Reference energy:                   -263.78731854

 Adding F12 terms to K(Cij), methodcc=6,  factor=1.0

 ITER.      SQ.NORM     CORR.ENERGY   TOTAL ENERGY   ENERGY CHANGE        DEN1      VAR(S)    VAR(P)  DIIS     TIME
   1      1.20218532    -0.86387369  -264.65119222     0.01811251     0.04668240  0.72D-02  0.55D-02  1  1    12.71
   2      1.21653793    -0.85969428  -264.64701282     0.00417941    -0.02019058  0.87D-04  0.59D-03  2  2    13.72
   3      1.22189178    -0.85980641  -264.64712494    -0.00011213    -0.00232535  0.13D-03  0.32D-04  3  3    14.69
   4      1.22470747    -0.85967831  -264.64699685     0.00012810    -0.00141372  0.78D-05  0.41D-05  4  4    15.69
   5      1.22574497    -0.85964138  -264.64695992     0.00003693    -0.00036561  0.58D-06  0.29D-06  5  5    16.72
   6      1.22591022    -0.85961437  -264.64693291     0.00002701    -0.00000828  0.43D-07  0.24D-07  6  6    17.75
   7      1.22594099    -0.85961190  -264.64693044     0.00000247    -0.00000639  0.33D-08  0.41D-08  6  4    18.79
   8      1.22593990    -0.85961172  -264.64693026     0.00000018     0.00000328  0.55D-09  0.33D-09  6  3    19.81
   9      1.22594286    -0.85961135  -264.64692989     0.00000036    -0.00000111  0.44D-10  0.25D-10  6  1    20.87

 Norm of t1 vector:      0.10638429      S-energy:     0.00000017      T1 diagnostic:  0.01535525
                                                                       D1 diagnostic:  0.04558760

 Adding energy correction from Wij-K(Fij), methodcc=6  factor=1.0
 
  CCSD correlation energy              -0.859611354380
  MP2-F12 correction (uncoupled)       -0.092466449962
  C*T doubles correction               -0.001471486804
  f12b correction                       0.015409949761


 Total CPU time for triples:     26.01 sec


 RESULTS
 =======

  Reference energy                   -263.771370897445
  F12 singles correction               -0.015947641687

 F12 singles corrections added to reference energy

  New reference energy               -263.787318539132

  F12a singlet correction              -0.080345982786
  F12a triplet correction              -0.013591953979
  F12a total correction                -0.093937936766

 F12a corrections for ansatz F12/3C(FIX) added to CCSD energy
 
  CCSD-F12a singlet pair energy        -0.641838355684
  CCSD-F12a triplet pair energy        -0.311711110207
  CCSD-F12a correlation energy         -0.953549291146

  Triples (T) contribution             -0.037861571396
  Total correlation energy             -0.991410862541

  CCSD-F12a total energy             -264.740867830278
  CCSD[T]-F12a energy                -264.781273020702
  CCSD-T-F12a energy                 -264.777796159768
 !CCSD(T)-F12a total energy          -264.778729401674

 F12b corrections for ansatz F12/3C(FIX) added to CCSD(T)-F12a energy

  CCSD-F12b singlet pair energy        -0.627657879619
  CCSD-F12b triplet pair energy        -0.310481636512
  CCSD-F12b correlation energy         -0.938139341384

  Triples (T) contribution             -0.037861571396
  Total correlation energy             -0.976000912780

  CCSD-F12b total energy             -264.725457880517
  CCSD[T]-F12b energy                -264.765863070940
  CCSD-T-F12b energy                 -264.762386210007
 !CCSD(T)-F12b total energy          -264.763319451912

 Timing summary (sec):

 STEP                 CPU(USER)    SYS     CPU(TOT)    WALL
 Transformation          1.54      0.25      1.79      1.78
 CCSD iterations         9.16      0.74      9.90      9.91
 Triples                26.01      0.74     26.75     27.08
 MP2-F12                10.18      1.20     11.38     11.39
 F12b energy             0.62      0.03      0.65      0.64

 Program statistics:

 Available memory in ccsd:                99998934
 Min. memory needed in ccsd:               2244783
 Max. memory used in ccsd:                 3005571
 Max. memory used in cckext:               2769663 (10 integral passes)



 **********************************************************************************************************************************
 DATASETS  * FILE   NREC   LENGTH (MB)   RECORD NAMES
              1      20      137.19       500      610      700      900      950      970     1000      129      960     1100   
                                          VAR    BASINP    GEOM    SYMINP    ZMAT    AOBASIS   BASIS     P2S    ABASIS      S 
                                         1400     1410     1200     1210     1080     1600     1650     1700      960(1)  1380   
                                           T        V       H0       H01     AOSYM     SMH    MOLCAS    OPER    ABASIS    JKOP   

              2       5        0.97       700     1000     2100     7360     7350   
                                         GEOM     BASIS     RHF    F12ABS    EF12   

 PROGRAMS   *        TOTAL   CCSD(T)        HF       INT
 CPU TIMES  *        54.97     47.62      1.40      5.87
 REAL TIME  *        59.42 SEC
 DISK USED  *         1.58 GB      
 SF USED    *         1.34 GB      
 GA USED    *         2.40 MB       (max)       0.00 MB       (current)
 **********************************************************************************************************************************

     CCSD(T)-F12        HF-SCF  
   -264.76331945   -263.77137090
 **********************************************************************************************************************************
 Variable memory released
