
 Primary working directories    : /scratch/kee
 Secondary working directories  : /scratch/kee
 Wavefunction directory         : /home/kee/wfu/
 Main file repository           : /scratch/kee/

 ARCHNAME  : Linux/x86_64
 FC        : /opt/intel/composer_xe_2015.0.090/bin/intel64/ifort
 FCVERSION : 15.0.0
 BLASLIB   : -L/opt/intel/mkl/lib/intel64 -lmkl_intel_ilp64 -lmkl_sequential -lmkl_core
 id        : emory

 Nodes     nprocs
 node24       3
 Number of processes for MPI-2 version of Molpro:   nprocs(total)=    4   nprocs(compute)=    3   nprocs(helper)=    1
 ga_uses_ma=false, calling ma_init with nominal heap.
 GA-space will be limited to   8.0 MW (determined by -G option)

 Using customized tuning parameters: mindgm=7; mindgv=32; mindgc=1; mindgr=1; noblas=0; mincuda=1000; minvec=7
 default implementation of scratch files=sf  

 ***,co2h2o
 memory,100,m
 basis avtz
 geomtype = xyz
 geometry = {
 6
       0.00000777
 O    10.97257393   -1.10347931    0.00000000
 O    11.76744404    1.08065151   -0.00000000
 O    -5.35643718   -0.00000000    0.00000000
 H    -6.10443226    0.58340495    0.10287003
 H    -4.60401198    0.58686026    0.10347930
 C    11.34356282    0.00000000    0.00000000
 }
 hf
 ccsd(t)-f12
 ---

 Variables initialized (665), CPU time= 0.01 sec
 Commands  initialized (462), CPU time= 0.00 sec, 486 directives.
 Default parameters read. Elapsed time= 0.04 sec

 Checking input...
 Passed
1


                                         ***  PROGRAM SYSTEM MOLPRO  ***
                         Copyright, University College Cardiff Consultants Limited, 2008

                                    Version 2010.1 linked 9 Dec 2014 15:06:28 


 **********************************************************************************************************************************
 LABEL *   co2h2o                                                                        
 Linux-2.6.32-504.el6.x86_64/node24(x86_64) 64 bit mpp version                           DATE: 18-Jan-17          TIME: 21:46:36  
 **********************************************************************************************************************************

 Patch level:      19
 **********************************************************************************************************************************

 Variable memory set to  100000000 words,  buffer space   230000 words

 SETTING BASIS          =    AVTZ
 SETTING GEOMTYPE       =    XYZ

Geometry recognized as XYZ



 Recomputing integrals since basis changed


 Using spherical harmonics

 Library entry O      S aug-cc-pVTZ          selected for orbital group  1
 Library entry O      P aug-cc-pVTZ          selected for orbital group  1
 Library entry O      D aug-cc-pVTZ          selected for orbital group  1
 Library entry O      F aug-cc-pVTZ          selected for orbital group  1
 Library entry H      S aug-cc-pVTZ          selected for orbital group  2
 Library entry H      P aug-cc-pVTZ          selected for orbital group  2
 Library entry H      D aug-cc-pVTZ          selected for orbital group  2
 Library entry C      S aug-cc-pVTZ          selected for orbital group  3
 Library entry C      P aug-cc-pVTZ          selected for orbital group  3
 Library entry C      D aug-cc-pVTZ          selected for orbital group  3
 Library entry C      F aug-cc-pVTZ          selected for orbital group  3

1PROGRAM * SEWARD (Integral evaluation for generally contracted gaussian basis sets)     Author: Roland Lindh, 1990

 Geometry written to block  1 of record 700


 Point group  C1  



 ATOMIC COORDINATES

 NR  ATOM    CHARGE       X              Y              Z

   1  O       8.00   20.735159684   -2.085273688    0.000000000
   2  O       8.00   22.237246502    2.042135397    0.000000000
   3  O       8.00  -10.122199310    0.000000000    0.000000000
   4  H       1.00  -11.535705159    1.102475579    0.194396184
   5  H       1.00   -8.700321748    1.109005169    0.195547537
   6  C       6.00   21.436227084    0.000000000    0.000000000

 Bond lengths in Bohr (Angstrom)

 1-6  2.199968602  2-6  2.193615529  3-4  1.803119814  3-5  1.813799081
     (1.164173245)     (1.160811343)     (0.954169911)     (0.959821135)

 Bond angles

  1-6-2  177.16520951   4-3-5  103.24222917

 NUCLEAR CHARGE:                   32
 NUMBER OF PRIMITIVE AOS:         322
 NUMBER OF SYMMETRY AOS:          282
 NUMBER OF CONTRACTIONS:          230   ( 230A   )
 NUMBER OF CORE ORBITALS:           4   (   4A   )
 NUMBER OF VALENCE ORBITALS:       18   (  18A   )


 NUCLEAR REPULSION ENERGY   74.42853820


 Eigenvalues of metric

         1 0.350E-03 0.385E-03 0.395E-03 0.420E-03 0.904E-03 0.923E-03 0.164E-02 0.176E-02


 Contracted 2-electron integrals neglected if value below      1.0D-11
 AO integral compression algorithm  1   Integral accuracy      1.0D-11

     312.476 MB (compressed) written to integral file ( 28.8%)

     Node minimum: 81.789 MB, node maximum: 119.276 MB


 NUMBER OF SORTED TWO-ELECTRON INTEGRALS:  117629820.     BUFFER LENGTH:  32768
 NUMBER OF SEGMENTS:   8  SEGMENT LENGTH:   15997437      RECORD LENGTH: 524288

 Memory used in sort:      16.55 MW

 SORT1 READ   135557529. AND WROTE    21818137. INTEGRALS IN     66 RECORDS. CPU TIME:     1.55 SEC, REAL TIME:     1.83 SEC
 SORT2 READ    65159395. AND WROTE   352862895. INTEGRALS IN   1275 RECORDS. CPU TIME:     0.84 SEC, REAL TIME:     1.09 SEC

 Node minimum:   117612110.  Node maximum:   117629820. integrals

 OPERATOR DM      FOR CENTER  0  COORDINATES:    0.000000    0.000000    0.000000


 **********************************************************************************************************************************
 DATASETS  * FILE   NREC   LENGTH (MB)   RECORD NAMES
              1      18        4.62       500      610      700      900      950      970     1000      129      960     1100   
                                          VAR    BASINP    GEOM    SYMINP    ZMAT    AOBASIS   BASIS     P2S    ABASIS      S 
                                         1400     1410     1200     1210     1080     1600     1650     1700   
                                           T        V       H0       H01     AOSYM     SMH    MOLCAS    OPER   

 PROGRAMS   *        TOTAL       INT
 CPU TIMES  *         4.50      4.42
 REAL TIME  *         5.38 SEC
 DISK USED  *         1.12 GB      
 GA USED    *         0.00 MB       (max)       0.00 MB       (current)
 **********************************************************************************************************************************

1PROGRAM * RHF-SCF (CLOSED SHELL)       Authors: W. Meyer, H.-J. Werner


 NUMBER OF ELECTRONS:      16+   16-    SPACE SYMMETRY=1    SPIN SYMMETRY=Singlet 
 CONVERGENCE THRESHOLDS:    1.00E-05 (Density)    1.00E-07 (Energy)
 MAX. NUMBER OF ITERATIONS:       60
 INTERPOLATION TYPE:            DIIS
 INTERPOLATION STEPS:              2 (START)      1 (STEP)
 LEVEL SHIFTS:                  0.00 (CLOSED)  0.00 (OPEN) 



 Orbital guess generated from atomic densities. Full valence occupancy:   22

 Molecular orbital dump at record        2100.2

 ITERATION    DDIFF          GRAD             ENERGY        2-EL.EN.            DIPOLE MOMENTS         DIIS
    1      0.000D+00      0.000D+00      -263.65953002    344.244726   -0.06882    1.17033    0.19888    0
    2      0.000D+00      0.469D-02      -263.72503842    339.726824   -0.01048    0.67517    0.11739    1
    3      0.752D-02      0.319D-02      -263.76858938    342.279461   -0.03294    0.79988    0.13684    2
    4      0.310D-02      0.300D-03      -263.76908602    342.066109   -0.03206    0.80256    0.13771    3
    5      0.356D-03      0.874D-04      -263.76914458    342.069311   -0.03186    0.79824    0.13673    4
    6      0.133D-03      0.354D-04      -263.76915185    342.083641   -0.03193    0.79833    0.13688    5
    7      0.443D-04      0.870D-05      -263.76915259    342.075453   -0.03183    0.79827    0.13680    6
    8      0.144D-04      0.204D-05      -263.76915264    342.076617   -0.03193    0.79802    0.13681    7
    9      0.398D-05      0.114D-05      -263.76915264    342.076563   -0.03185    0.79824    0.13680    0

 Final occupancy:  16

 !RHF STATE 1.1 Energy               -263.769152641157
 Nuclear energy                        74.42853820
 One-electron energy                 -509.23597256
 Two-electron energy                  171.03828171
 Virial quotient                       -1.00179948
 !RHF STATE 1.1 Dipole moment          -0.03184813     0.79823522     0.13680127
 Dipole moment /Debye                  -0.08094458     2.02877867     0.34769138

 Orbital energies:

         1.1          2.1          3.1          4.1          5.1          6.1          7.1          8.1          9.1         10.1
    -20.654126   -20.653018   -20.567772   -11.462448    -1.531093    -1.477791    -1.354739    -0.801439    -0.743536    -0.715563

        11.1         12.1         13.1         14.1         15.1         16.1         17.1         18.1
     -0.715114    -0.715097    -0.587565    -0.544816    -0.544762    -0.510827     0.029283     0.047138


 **********************************************************************************************************************************
 DATASETS  * FILE   NREC   LENGTH (MB)   RECORD NAMES
              1      18        4.62       500      610      700      900      950      970     1000      129      960     1100   
                                          VAR    BASINP    GEOM    SYMINP    ZMAT    AOBASIS   BASIS     P2S    ABASIS      S 
                                         1400     1410     1200     1210     1080     1600     1650     1700   
                                           T        V       H0       H01     AOSYM     SMH    MOLCAS    OPER   

              2       3        1.44       700     1000     2100   
                                         GEOM     BASIS     RHF  

 PROGRAMS   *        TOTAL        HF       INT
 CPU TIMES  *        11.31      6.81      4.42
 REAL TIME  *        12.37 SEC
 DISK USED  *         1.15 GB      
 SF USED    *         0.21 MB      
 GA USED    *         0.00 MB       (max)       0.00 MB       (current)
 **********************************************************************************************************************************


1PROGRAM * CCSD (Closed-shell coupled cluster)     Authors: C. Hampel, H.-J. Werner, 1991, M. Deegan, P.J. Knowles, 1992

                                  CCSD-F12 implementation by  H.-J. Werner, 2007

                   Density fitting integral evaluation by F.R. Manby, 2003,2007, G. Knizia, 2010

 Basis set CC-PVTZ/JKFIT generated.      Number of basis functions:   376 
 Basis set AUG-CC-PVTZ/MP2FIT generated. Number of basis functions:   516 

 Convergence thresholds:  THRVAR = 1.00D-08  THRDEN = 1.00D-06

 CCSD(T)     terms to be evaluated (factor= 1.000)


 Number of core orbitals:           4 (   4 )
 Number of closed-shell orbitals:  12 (  12 )
 Number of external orbitals:     214 ( 214 )

 Molecular orbitals read from record     2100.2  Type=RHF/CANONICAL (state 1.1)

 MP2-F12 correlation treatment (H.-J. Werner, 2006)
 --------------------------------------------------

 Using MP2-F12 with ansatz 3C(FIX)

 Using projected zeroth-order Hamiltonian (+Z)

 FOCKRIB=T FOCKRIC=T FOCKRIP=T CABSP=T CABSA=T CABSK=T CABSF=T GBC=F EBC=F DMAT=T NOFIK=T NOPAO=1 SOLVE=-1  USEPAO=0
 EXCH_A= T EXCH_B= F EXCH_C= F EXCH_P= F
 
 Geminal basis:    OPTFULL  GEM_TYPE=SLATER  BETA=1.0  NGEM=6

 Optimizing Gaussian exponents for each gem_beta

 Geminal optimization for beta= 1.0000
 Weight function:   m=0, omega= 1.4646

 Augmented Hessian optimization of geminal fit. Trust ratio= 0.40000
 Convergence reached after   2 iterations. Final gradient= 8.24D-16, Step= 4.32D-06, Delta= 1.28D-09
 
 Alpha:                 0.19532     0.81920     2.85917     9.50073    35.69989   197.79328
 Coeff:                 0.27070     0.30552     0.18297     0.10986     0.06810     0.04224
 

 All pairs explicitly correlated. Number of r12-pairs:           78
 
 AO(A)-basis ORBITAL           loaded. Number of functions:     230
 RI(R)-basis CC-PVTZ/JKFIT     loaded. Number of functions:     376
 DF-basis CC-PVTZ/JKFIT        loaded. Number of functions:     376

 Screening thresholds:   THRAO=  1.00D-10  THRMO=  1.00D-09  THRPROD=  1.00D-09
                         THRSW=  1.00D-05  THROV=  1.00D-12  THRF12=   1.00D-08

 CPU time for Fock operators                      0.90 sec
 
 Construction of ABS:
 Smallest eigenvalue of S          2.58E-04  (threshold= 1.00E-08)
 Ratio eigmin/eigmax               1.84E-06  (threshold= 1.00E-09)
 Smallest eigenvalue of S kept     2.58E-04  (threshold= 2.58E-04, 0 functions deleted, 376 kept)
 
 Construction of CABS:
 Smallest eigenvalue of S          2.30E-08  (threshold= 1.00E-08)
 Ratio eigmin/eigmax               2.30E-08  (threshold= 1.00E-09)
 Smallest eigenvalue of S kept     2.30E-08  (threshold= 2.30E-08, 0 functions deleted, 376 kept)
 
 CPU time for CABS singles                        0.17 sec

 CABS-singles contribution of  -0.01593108 patched into reference energy.
 New reference energy        -263.78508372
 
 AO(A)-basis ORBITAL           loaded. Number of functions:     230
 RI(R)-basis CC-PVTZ/JKFIT     loaded. Number of functions:     376
 DF-basis AUG-CC-PVTZ/MP2FIT   loaded. Number of functions:     516

 Screening thresholds:   THRAO=  1.00D-10  THRMO=  1.00D-09  THRPROD=  1.00D-09
                         THRSW=  1.00D-05  THROV=  1.00D-12  THRF12=   1.00D-08

 CPU time for 3-index integral evaluation         1.57 sec
 CPU time for first  half transformation          0.11 sec ( 9245.8 MFLOP/sec)
 CPU time for second half transformation          0.01 sec ( 6068.2 MFLOP/sec)
 CPU time for sorting                             0.09 sec
 CPU time for fitting                             0.06 sec (23217.5 MFLOP/sec)
 CPU time for tilde quantities                    0.07 sec (26412.6 MFLOP/sec)
 CPU time for assembly                            0.86 sec (26586.9 MFLOP/sec)
 CPU time for tranop_f12                          0.94 sec (31627.0 MFLOP/sec)
 CPU time for f12 integrals (total)               5.92 sec
 F12-matrices built in  3 passes.
 F12-matrices built in  3 passes.
 F12-matrices built in  3 passes.
 F12-matrices built in  3 passes.
 FC-matrix built in  3 passes.
 CPU time for f12 matrices (total)                0.54 sec

 Diagonal F12 approximation with fixed coefficients:  TSING= 0.500,  TTRIP= 0.250 (scaled by -1/beta)

 DF-MP2-F12 energy corrections:
 ------------------------------
 Approx.                                    Singlet             Triplet             Total
 DF-MP2-F12/3*C(DX,FIX)                -0.097444519637     -0.016933760060     -0.114378279697
 DF-MP2-F12/3*C(FIX)                   -0.079853646492     -0.013394890225     -0.093248536717
 DF-MP2-F12/3C(FIX)                    -0.080215117559     -0.013418682505     -0.093633800064

 DF-MP2-F12 correlation energies:
 --------------------------------
 Approx.                                    Singlet             Triplet             Ecorr            Total Energy
 DF-MP2                                -0.537789986147     -0.343131787982     -0.880921774128   -264.666005490396
 DF-MP2-F12/3*C(DX,FIX)                -0.635234505783     -0.360065548042     -0.995300053825   -264.780383770093
 DF-MP2-F12/3*C(FIX)                   -0.617643632639     -0.356526678207     -0.974170310846   -264.759254027114
 DF-MP2-F12/3C(FIX)                    -0.618005103705     -0.356550470486     -0.974555574192   -264.759639290460

 SCS-DF-MP2 energies (F_SING= 1.20000  F_TRIP= 0.62222  F_PARALLEL= 0.33333):
 ----------------------------------------------------------------------------
 SCS-DF-MP2                            -0.858852207009   -264.643935923277
 SCS-DF-MP2-F12/3*C(DX,FIX)            -0.986322192388   -264.771405908656
 SCS-DF-MP2-F12/3*C(FIX)               -0.963011181162   -264.748094897430
 SCS-DF-MP2-F12/3C(FIX)                -0.963459750527   -264.748543466795
 Symmetry transformation completed.

 Number of N-1 electron functions:              12
 Number of N-2 electron functions:              78
 Number of singly external CSFs:              2568
 Number of doubly external CSFs:           3298596
 Total number of CSFs:                     3301165

 Pair and operator lists are different

 Length of J-op  integral file:             474.22 MB
 Length of K-op  integral file:             572.29 MB
 Length of 3-ext integral record:             0.00 MB

 For full I/O caching in triples, increase memory by 50.81 Mwords to 151.09 Mwords.

 Integral transformation finished. Total CPU:  12.17 sec, npass=  1  Memory used:  87.46 MW

 Reference energy:                   -263.78508372

 Adding F12 terms to K(Cij), methodcc=6,  factor=1.0

 ITER.      SQ.NORM     CORR.ENERGY   TOTAL ENERGY   ENERGY CHANGE        DEN1      VAR(S)    VAR(P)  DIIS     TIME
   1      1.20216785    -0.86285332  -264.64793703     0.01808482     0.04674854  0.72D-02  0.56D-02  1  1    26.86
   2      1.21649157    -0.85861431  -264.64369802     0.00423901    -0.02016982  0.86D-04  0.59D-03  2  2    33.44
   3      1.22185542    -0.85870961  -264.64379332    -0.00009530    -0.00236198  0.13D-03  0.32D-04  3  3    40.15
   4      1.22466196    -0.85858101  -264.64366473     0.00012860    -0.00141259  0.76D-05  0.41D-05  4  4    47.00
   5      1.22569519    -0.85854305  -264.64362677     0.00003796    -0.00036737  0.56D-06  0.29D-06  5  5    53.70
   6      1.22585787    -0.85851611  -264.64359983     0.00002694    -0.00000807  0.40D-07  0.24D-07  6  6    60.43
   7      1.22588737    -0.85851367  -264.64359739     0.00000244    -0.00000622  0.26D-08  0.40D-08  6  4    67.18
   8      1.22588772    -0.85851317  -264.64359689     0.00000050     0.00000193  0.40D-09  0.28D-09  6  1    73.88
   9      1.22588831    -0.85851324  -264.64359696    -0.00000007     0.00000058  0.27D-10  0.22D-10  6  2    80.58

 Norm of t1 vector:      0.10606615      S-energy:     0.00000018      T1 diagnostic:  0.01530933
                                                                       D1 diagnostic:  0.04500994

 Adding energy correction from Wij-K(Fij), methodcc=6  factor=1.0
 
  CCSD correlation energy              -0.858513239395
  MP2-F12 correction (uncoupled)       -0.092475247757
  C*T doubles correction               -0.001477520841
  f12b correction                       0.015405132691


 Total CPU time for triples:    222.13 sec


 RESULTS
 =======

  Reference energy                   -263.769152641157
  F12 singles correction               -0.015931075111

 F12 singles corrections added to reference energy

  New reference energy               -263.785083716268

  F12a singlet correction              -0.080415857139
  F12a triplet correction              -0.013536911460
  F12a total correction                -0.093952768598

 F12a corrections for ansatz F12/3C(FIX) added to CCSD energy
 
  CCSD-F12a singlet pair energy        -0.641929415114
  CCSD-F12a triplet pair energy        -0.310536775934
  CCSD-F12a correlation energy         -0.952466007994

  Triples (T) contribution             -0.037658067406
  Total correlation energy             -0.990124075399

  CCSD-F12a total energy             -264.737549724262
  CCSD[T]-F12a energy                -264.777756418596
  CCSD-T-F12a energy                 -264.774268623443
 !CCSD(T)-F12a total energy          -264.775207791667

 F12b corrections for ansatz F12/3C(FIX) added to CCSD(T)-F12a energy

  CCSD-F12b singlet pair energy        -0.627747406672
  CCSD-F12b triplet pair energy        -0.309313651685
  CCSD-F12b correlation energy         -0.937060875302

  Triples (T) contribution             -0.037658067406
  Total correlation energy             -0.974718942708

  CCSD-F12b total energy             -264.722144591570
  CCSD[T]-F12b energy                -264.762351285905
  CCSD-T-F12b energy                 -264.758863490751
 !CCSD(T)-F12b total energy          -264.759802658976

 Timing summary (sec):

 STEP                 CPU(USER)    SYS     CPU(TOT)    WALL
 Transformation         12.29      1.15     13.44     14.10
 CCSD iterations        60.16      2.87     63.03     62.98
 Triples               222.13      2.45    224.58    224.57
 MP2-F12                 8.16      1.24      9.40      9.48
 F12b energy             3.86      0.04      3.90      3.89

 Program statistics:

 Available memory in ccsd:                99998934
 Min. memory needed in ccsd:               8644845
 Max. memory used in ccsd:                11598633
 Max. memory used in cckext:               8768967 (10 integral passes)



 **********************************************************************************************************************************
 DATASETS  * FILE   NREC   LENGTH (MB)   RECORD NAMES
              1      20      527.84       500      610      700      900      950      970     1000      129      960     1100   
                                          VAR    BASINP    GEOM    SYMINP    ZMAT    AOBASIS   BASIS     P2S    ABASIS      S 
                                         1400     1410     1200     1210     1080     1600     1650     1700      960(1)  1380   
                                           T        V       H0       H01     AOSYM     SMH    MOLCAS    OPER    ABASIS    JKOP   

              2       5        2.50       700     1000     2100     7360     7350   
                                         GEOM     BASIS     RHF    F12ABS    EF12   

 PROGRAMS   *        TOTAL   CCSD(T)        HF       INT
 CPU TIMES  *       317.93    306.62      6.81      4.42
 REAL TIME  *       327.80 SEC
 DISK USED  *         2.02 GB      
 SF USED    *         1.91 GB      
 GA USED    *         2.40 MB       (max)       0.00 MB       (current)
 **********************************************************************************************************************************

     CCSD(T)-F12        HF-SCF  
   -264.75980266   -263.76915264
 **********************************************************************************************************************************
 Variable memory released
