
 Primary working directories    : /scratch/kee
 Secondary working directories  : /scratch/kee
 Wavefunction directory         : /home/kee/wfu/
 Main file repository           : /scratch/kee/

 ARCHNAME  : Linux/x86_64
 FC        : /opt/intel/composer_xe_2015.0.090/bin/intel64/ifort
 FCVERSION : 15.0.0
 BLASLIB   : -L/opt/intel/mkl/lib/intel64 -lmkl_intel_ilp64 -lmkl_sequential -lmkl_core
 id        : emory

 Nodes     nprocs
 node22       3
 Number of processes for MPI-2 version of Molpro:   nprocs(total)=    4   nprocs(compute)=    3   nprocs(helper)=    1
 ga_uses_ma=false, calling ma_init with nominal heap.
 GA-space will be limited to   8.0 MW (determined by -G option)

 Using customized tuning parameters: mindgm=7; mindgv=32; mindgc=1; mindgr=1; noblas=0; mincuda=1000; minvec=7
 default implementation of scratch files=sf  

 ***,co2h2o
 memory,100,m
 basis avtz
 geomtype = xyz
 geometry = {
 6
    -264.76489694
 O     0.82869278    1.16169550    0.00000000
 O     0.82658011   -1.16233555    0.00000000
 O    -1.79123461    0.00071990    0.00000000
 H    -2.37486762    0.76131455    0.00000000
 H    -2.37459951   -0.76008202    0.00000000
 C     0.80876519   -0.00029961    0.00000000
 }
 hf
 ccsd(t)-f12
 ---

 Variables initialized (665), CPU time= 0.01 sec
 Commands  initialized (462), CPU time= 0.01 sec, 486 directives.
 Default parameters read. Elapsed time= 0.04 sec

 Checking input...
 Passed
1


                                         ***  PROGRAM SYSTEM MOLPRO  ***
                         Copyright, University College Cardiff Consultants Limited, 2008

                                    Version 2010.1 linked 9 Dec 2014 15:06:28 


 **********************************************************************************************************************************
 LABEL *   co2h2o                                                                        
 Linux-2.6.32-504.el6.x86_64/node22(x86_64) 64 bit mpp version                           DATE: 12-Dec-16          TIME: 17:51:22  
 **********************************************************************************************************************************

 Patch level:      19
 **********************************************************************************************************************************

 Variable memory set to  100000000 words,  buffer space   230000 words

 SETTING BASIS          =    AVTZ
 SETTING GEOMTYPE       =    XYZ

Geometry recognized as XYZ



 Recomputing integrals since basis changed


 Using spherical harmonics

 Library entry O      S aug-cc-pVTZ          selected for orbital group  1
 Library entry O      P aug-cc-pVTZ          selected for orbital group  1
 Library entry O      D aug-cc-pVTZ          selected for orbital group  1
 Library entry O      F aug-cc-pVTZ          selected for orbital group  1
 Library entry H      S aug-cc-pVTZ          selected for orbital group  2
 Library entry H      P aug-cc-pVTZ          selected for orbital group  2
 Library entry H      D aug-cc-pVTZ          selected for orbital group  2
 Library entry C      S aug-cc-pVTZ          selected for orbital group  3
 Library entry C      P aug-cc-pVTZ          selected for orbital group  3
 Library entry C      D aug-cc-pVTZ          selected for orbital group  3
 Library entry C      F aug-cc-pVTZ          selected for orbital group  3

1PROGRAM * SEWARD (Integral evaluation for generally contracted gaussian basis sets)     Author: Roland Lindh, 1990

 Geometry written to block  1 of record 700


 Point group  Cs  



 ATOMIC COORDINATES

 NR  ATOM    CHARGE       X              Y              Z

   1  O       8.00    1.566002401    2.195286343    0.000000000
   2  O       8.00    1.562010034   -2.196495862    0.000000000
   3  O       8.00   -3.384942850    0.001360414    0.000000000
   4  H       1.00   -4.487849400    1.438675999    0.000000000
   5  H       1.00   -4.487342746   -1.436346855    0.000000000
   6  C       6.00    1.528344714   -0.000566181    0.000000000

 Bond lengths in Bohr (Angstrom)

 1-6  2.196175405  2-6  2.196187724  3-4  1.811706088  3-5  1.811708509
     (1.162165971)     (1.162172490)     (0.958713571)     (0.958714852)

 Bond angles

  1-6-2  178.13918425   4-3-5  105.01947441

 NUCLEAR CHARGE:                   32
 NUMBER OF PRIMITIVE AOS:         322
 NUMBER OF SYMMETRY AOS:          282
 NUMBER OF CONTRACTIONS:          230   ( 152A'  +  78A"  )
 NUMBER OF CORE ORBITALS:           4   (   4A'  +   0A"  )
 NUMBER OF VALENCE ORBITALS:       18   (  14A'  +   4A"  )


 NUCLEAR REPULSION ENERGY  107.70517505


 Eigenvalues of metric

         1 0.226E-03 0.253E-03 0.299E-03 0.320E-03 0.598E-03 0.783E-03 0.863E-03 0.142E-02
         2 0.301E-02 0.346E-02 0.508E-02 0.118E-01 0.127E-01 0.253E-01 0.289E-01 0.292E-01


 Contracted 2-electron integrals neglected if value below      1.0D-11
 AO integral compression algorithm  1   Integral accuracy      1.0D-11

     762.053 MB (compressed) written to integral file ( 45.9%)

     Node minimum: 246.678 MB, node maximum: 257.950 MB


 NUMBER OF SORTED TWO-ELECTRON INTEGRALS:   59950380.     BUFFER LENGTH:  32768
 NUMBER OF SEGMENTS:   4  SEGMENT LENGTH:   15995235      RECORD LENGTH: 524288

 Memory used in sort:      16.55 MW

 SORT1 READ   207531521. AND WROTE    56061194. INTEGRALS IN    162 RECORDS. CPU TIME:     3.34 SEC, REAL TIME:     3.89 SEC
 SORT2 READ   168663195. AND WROTE   179836431. INTEGRALS IN   2823 RECORDS. CPU TIME:     1.12 SEC, REAL TIME:     1.59 SEC

 Node minimum:    59940574.  Node maximum:    59950380. integrals

 OPERATOR DM      FOR CENTER  0  COORDINATES:    0.000000    0.000000    0.000000


 **********************************************************************************************************************************
 DATASETS  * FILE   NREC   LENGTH (MB)   RECORD NAMES
              1      18        3.74       500      610      700      900      950      970     1000      129      960     1100   
                                          VAR    BASINP    GEOM    SYMINP    ZMAT    AOBASIS   BASIS     P2S    ABASIS      S 
                                         1400     1410     1200     1210     1080     1600     1650     1700   
                                           T        V       H0       H01     AOSYM     SMH    MOLCAS    OPER   

 PROGRAMS   *        TOTAL       INT
 CPU TIMES  *         9.16      9.08
 REAL TIME  *        10.47 SEC
 DISK USED  *         2.76 GB      
 GA USED    *         0.00 MB       (max)       0.00 MB       (current)
 **********************************************************************************************************************************

1PROGRAM * RHF-SCF (CLOSED SHELL)       Authors: W. Meyer, H.-J. Werner


 NUMBER OF ELECTRONS:      16+   16-
 CONVERGENCE THRESHOLDS:    1.00E-05 (Density)    1.00E-07 (Energy)
 MAX. NUMBER OF ITERATIONS:       60
 INTERPOLATION TYPE:            DIIS
 INTERPOLATION STEPS:              2 (START)      1 (STEP)
 LEVEL SHIFTS:                  0.00 (CLOSED)  0.00 (OPEN) 



 Orbital guess generated from atomic densities. Full valence occupancy:   18   4

 Molecular orbital dump at record        2100.2

 Initial alpha occupancy:  13   3
 Initial beta  occupancy:  13   3
 Wave function symmetry:    1

 ITERATION    DDIFF          GRAD             ENERGY        2-EL.EN.            DIPOLE MOMENTS         DIIS
    1      0.000D+00      0.000D+00      -263.66945930    411.902464   -1.24700   -0.00008    0.00000    0
    2      0.000D+00      0.611D-02      -263.73243029    407.168414   -0.92198   -0.00002    0.00000    1
    3      0.987D-02      0.405D-02      -263.77097901    409.590720   -0.97140   -0.00000    0.00000    2
    4      0.397D-02      0.408D-03      -263.77149126    409.427658   -0.96834   -0.00002    0.00000    3
    5      0.495D-03      0.122D-03      -263.77155104    409.405215   -0.96295   -0.00001    0.00000    4
    6      0.186D-03      0.501D-04      -263.77155895    409.424193   -0.96348   -0.00001    0.00000    5
    7      0.621D-04      0.110D-04      -263.77155968    409.415711   -0.96310   -0.00001    0.00000    6
    8      0.201D-04      0.249D-05      -263.77155972    409.417184   -0.96315   -0.00001    0.00000    7
    9      0.516D-05      0.833D-06      -263.77155972    409.416909   -0.96313   -0.00001    0.00000    0

 Final occupancy:  13   3

 !RHF STATE 1.1 Energy               -263.771559722632
 Nuclear energy                       107.70517505
 One-electron energy                 -576.18518905
 Two-electron energy                  204.70845427
 Virial quotient                       -1.00170855
 !RHF STATE 1.1 Dipole moment          -0.96313367    -0.00001256     0.00000000
 Dipole moment /Debye                  -2.44788127    -0.00003192     0.00000000

 Orbital energies:

         1.1          2.1          3.1          4.1          5.1          6.1          7.1          8.1          9.1         10.1
    -20.626965   -20.626919   -20.580600   -11.438790    -1.506003    -1.453097    -1.368135    -0.778072    -0.732900    -0.720419

        11.1         12.1         13.1         14.1         15.1
     -0.698052    -0.595132    -0.521695     0.024711     0.047570

         1.2          2.2          3.2          4.2          5.2
     -0.690665    -0.526005    -0.520689     0.082929     0.168359


 **********************************************************************************************************************************
 DATASETS  * FILE   NREC   LENGTH (MB)   RECORD NAMES
              1      18        3.76       500      610      700      900      950      970     1000      129      960     1100   
                                          VAR    BASINP    GEOM    SYMINP    ZMAT    AOBASIS   BASIS     P2S    ABASIS      S 
                                         1400     1410     1200     1210     1080     1600     1650     1700   
                                           T        V       H0       H01     AOSYM     SMH    MOLCAS    OPER   

              2       3        0.96       700     1000     2100   
                                         GEOM     BASIS     RHF  

 PROGRAMS   *        TOTAL        HF       INT
 CPU TIMES  *        13.30      4.14      9.08
 REAL TIME  *        15.00 SEC
 DISK USED  *         2.79 GB      
 SF USED    *         0.12 MB      
 GA USED    *         0.00 MB       (max)       0.00 MB       (current)
 **********************************************************************************************************************************


1PROGRAM * CCSD (Closed-shell coupled cluster)     Authors: C. Hampel, H.-J. Werner, 1991, M. Deegan, P.J. Knowles, 1992

                                  CCSD-F12 implementation by  H.-J. Werner, 2007

                   Density fitting integral evaluation by F.R. Manby, 2003,2007, G. Knizia, 2010

 Basis set CC-PVTZ/JKFIT generated.      Number of basis functions:   376 
 Basis set AUG-CC-PVTZ/MP2FIT generated. Number of basis functions:   516 

 Convergence thresholds:  THRVAR = 1.00D-08  THRDEN = 1.00D-06

 CCSD(T)     terms to be evaluated (factor= 1.000)


 Number of core orbitals:           4 (   4   0 )
 Number of closed-shell orbitals:  12 (   9   3 )
 Number of external orbitals:     214 ( 139  75 )

 Molecular orbitals read from record     2100.2  Type=RHF/CANONICAL (state 1.1)

 MP2-F12 correlation treatment (H.-J. Werner, 2006)
 --------------------------------------------------

 Using MP2-F12 with ansatz 3C(FIX)

 Using projected zeroth-order Hamiltonian (+Z)

 FOCKRIB=T FOCKRIC=T FOCKRIP=T CABSP=T CABSA=T CABSK=T CABSF=T GBC=F EBC=F DMAT=T NOFIK=T NOPAO=1 SOLVE=-1  USEPAO=0
 EXCH_A= T EXCH_B= F EXCH_C= F EXCH_P= F
 
 Geminal basis:    OPTFULL  GEM_TYPE=SLATER  BETA=1.0  NGEM=6

 Optimizing Gaussian exponents for each gem_beta

 Geminal optimization for beta= 1.0000
 Weight function:   m=0, omega= 1.4646

 Augmented Hessian optimization of geminal fit. Trust ratio= 0.40000
 Convergence reached after   2 iterations. Final gradient= 8.24D-16, Step= 4.32D-06, Delta= 1.28D-09
 
 Alpha:                 0.19532     0.81920     2.85917     9.50073    35.69989   197.79328
 Coeff:                 0.27070     0.30552     0.18297     0.10986     0.06810     0.04224
 

 Symmetry turned off. Reference energy:       -263.771559722632

 All pairs explicitly correlated. Number of r12-pairs:           78
 
 AO(A)-basis ORBITAL           loaded. Number of functions:     230
 RI(R)-basis CC-PVTZ/JKFIT     loaded. Number of functions:     376
 DF-basis CC-PVTZ/JKFIT        loaded. Number of functions:     376

 Screening thresholds:   THRAO=  1.00D-10  THRMO=  1.00D-09  THRPROD=  1.00D-09
                         THRSW=  1.00D-05  THROV=  1.00D-12  THRF12=   1.00D-08

 CPU time for Fock operators                      0.95 sec
 
 Construction of ABS:
 Smallest eigenvalue of S          2.44E-04  (threshold= 1.00E-08)
 Ratio eigmin/eigmax               1.74E-06  (threshold= 1.00E-09)
 Smallest eigenvalue of S kept     2.44E-04  (threshold= 2.44E-04, 0 functions deleted, 376 kept)
 
 Construction of CABS:
 Smallest eigenvalue of S          2.24E-08  (threshold= 1.00E-08)
 Ratio eigmin/eigmax               2.24E-08  (threshold= 1.00E-09)
 Smallest eigenvalue of S kept     2.24E-08  (threshold= 2.24E-08, 0 functions deleted, 376 kept)
 
 CPU time for CABS singles                        0.16 sec

 CABS-singles contribution of  -0.01591014 patched into reference energy.
 New reference energy        -263.78746986
 
 AO(A)-basis ORBITAL           loaded. Number of functions:     230
 RI(R)-basis CC-PVTZ/JKFIT     loaded. Number of functions:     376
 DF-basis AUG-CC-PVTZ/MP2FIT   loaded. Number of functions:     516

 Screening thresholds:   THRAO=  1.00D-10  THRMO=  1.00D-09  THRPROD=  1.00D-09
                         THRSW=  1.00D-05  THROV=  1.00D-12  THRF12=   1.00D-08

 CPU time for 3-index integral evaluation         2.97 sec
 CPU time for first  half transformation          0.27 sec (10788.3 MFLOP/sec)
 CPU time for second half transformation          0.04 sec ( 2594.4 MFLOP/sec)
 CPU time for sorting                             0.16 sec
 CPU time for fitting                             0.05 sec (28031.4 MFLOP/sec)
 CPU time for tilde quantities                    0.05 sec (36977.6 MFLOP/sec)
 CPU time for assembly                            0.80 sec (29315.6 MFLOP/sec)
 CPU time for tranop_f12                          0.86 sec (35052.2 MFLOP/sec)
 CPU time for f12 integrals (total)               7.21 sec
 F12-matrices built in  3 passes.
 F12-matrices built in  3 passes.
 F12-matrices built in  3 passes.
 F12-matrices built in  3 passes.
 FC-matrix built in  3 passes.
 CPU time for f12 matrices (total)                0.49 sec

 Diagonal F12 approximation with fixed coefficients:  TSING= 0.500,  TTRIP= 0.250 (scaled by -1/beta)

 DF-MP2-F12 energy corrections:
 ------------------------------
 Approx.                                    Singlet             Triplet             Total
 DF-MP2-F12/3*C(DX,FIX)                -0.097376733598     -0.017023194821     -0.114399928418
 DF-MP2-F12/3*C(FIX)                   -0.079787694408     -0.013509080005     -0.093296774412
 DF-MP2-F12/3C(FIX)                    -0.080163775168     -0.013550288008     -0.093714063176

 DF-MP2-F12 correlation energies:
 --------------------------------
 Approx.                                    Singlet             Triplet             Ecorr            Total Energy
 DF-MP2                                -0.537858135927     -0.345022420113     -0.882880556039   -264.670350420354
 DF-MP2-F12/3*C(DX,FIX)                -0.635234869524     -0.362045614933     -0.997280484457   -264.784750348772
 DF-MP2-F12/3*C(FIX)                   -0.617645830334     -0.358531500117     -0.976177330452   -264.763647194766
 DF-MP2-F12/3C(FIX)                    -0.618021911094     -0.358572708121     -0.976594619215   -264.764064483530

 SCS-DF-MP2 energies (F_SING= 1.20000  F_TRIP= 0.62222  F_PARALLEL= 0.33333):
 ----------------------------------------------------------------------------
 SCS-DF-MP2                            -0.860110380071   -264.647580244386
 SCS-DF-MP2-F12/3*C(DX,FIX)            -0.987554670499   -264.775024534813
 SCS-DF-MP2-F12/3*C(FIX)               -0.964261263141   -264.751731127456
 SCS-DF-MP2-F12/3C(FIX)                -0.964738200588   -264.752208064903

 Symmetry restored.
 Symmetry transformation completed.

 Number of N-1 electron functions:              12
 Number of N-2 electron functions:              78
 Number of singly external CSFs:              1476
 Number of doubly external CSFs:           1686804
 Total number of CSFs:                     1688281

 Pair and operator lists are different

 Length of J-op  integral file:             466.42 MB
 Length of K-op  integral file:             526.62 MB
 Length of 3-ext integral record:             0.00 MB

 Memory could be reduced to 76.61 Mwords without degradation in triples

 Integral transformation finished. Total CPU:   4.06 sec, npass=  1  Memory used:  24.61 MW

 Reference energy:                   -263.78746986

 Adding F12 terms to K(Cij), methodcc=6,  factor=1.0

 ITER.      SQ.NORM     CORR.ENERGY   TOTAL ENERGY   ENERGY CHANGE        DEN1      VAR(S)    VAR(P)  DIIS     TIME
   1      1.20196940    -0.86471825  -264.65218811     0.01817470     0.04663178  0.72D-02  0.55D-02  1  1    16.00
   2      1.21623810    -0.86057757  -264.64804743     0.00414068    -0.02010039  0.90D-04  0.58D-03  2  2    18.78
   3      1.22160653    -0.86069716  -264.64816702    -0.00011959    -0.00235022  0.13D-03  0.32D-04  3  3    21.58
   4      1.22442223    -0.86056680  -264.64803667     0.00013036    -0.00141254  0.79D-05  0.40D-05  4  4    24.38
   5      1.22545625    -0.86053005  -264.64799991     0.00003676    -0.00036413  0.62D-06  0.28D-06  5  5    27.20
   6      1.22561980    -0.86050299  -264.64797286     0.00002705    -0.00000757  0.45D-07  0.25D-07  6  6    30.02
   7      1.22565172    -0.86050014  -264.64797000     0.00000285    -0.00000661  0.39D-08  0.39D-08  6  2    32.84
   8      1.22565211    -0.86049985  -264.64796971     0.00000029     0.00000206  0.43D-09  0.32D-09  6  1    35.67
   9      1.22565262    -0.86049992  -264.64796979    -0.00000007     0.00000071  0.46D-10  0.26D-10  6  4    38.45

 Norm of t1 vector:      0.10656456      S-energy:     0.00000004      T1 diagnostic:  0.01538127
                                                                       D1 diagnostic:  0.04611055

 Adding energy correction from Wij-K(Fij), methodcc=6  factor=1.0
 
  CCSD correlation energy              -0.860499924332
  MP2-F12 correction (uncoupled)       -0.092538990993
  C*T doubles correction               -0.001476395958
  f12b correction                       0.015420389930


 Total CPU time for triples:     74.53 sec


 RESULTS
 =======

  Reference energy                   -263.771559722633
  F12 singles correction               -0.015910141682

 F12 singles corrections added to reference energy

  New reference energy               -263.787469864315

  F12a singlet correction              -0.080356594660
  F12a triplet correction              -0.013658792292
  F12a total correction                -0.094015386952

 F12a corrections for ansatz F12/3C(FIX) added to CCSD energy
 
  CCSD-F12a singlet pair energy        -0.641661400117
  CCSD-F12a triplet pair energy        -0.312853951614
  CCSD-F12a correlation energy         -0.954515311284

  Triples (T) contribution             -0.037983124432
  Total correlation energy             -0.992498435716

  CCSD-F12a total energy             -264.741985175599
  CCSD[T]-F12a energy                -264.782509668532
  CCSD-T-F12a energy                 -264.779040598825
 !CCSD(T)-F12a total energy          -264.779968300032

 F12b corrections for ansatz F12/3C(FIX) added to CCSD(T)-F12a energy

  CCSD-F12b singlet pair energy        -0.627477718787
  CCSD-F12b triplet pair energy        -0.311617243014
  CCSD-F12b correlation energy         -0.939094921354

  Triples (T) contribution             -0.037983124432
  Total correlation energy             -0.977078045786

  CCSD-F12b total energy             -264.726564785669
  CCSD[T]-F12b energy                -264.767089278602
  CCSD-T-F12b energy                 -264.763620208895
 !CCSD(T)-F12b total energy          -264.764547910101

 Timing summary (sec):

 STEP                 CPU(USER)    SYS     CPU(TOT)    WALL
 Transformation          4.09      0.50      4.59      4.59
 CCSD iterations        25.14      1.60     26.74     27.22
 Triples                74.53      1.52     76.05     76.02
 MP2-F12                 9.24      1.22     10.46     10.46
 F12b energy             1.78      0.04      1.82      1.83

 Program statistics:

 Available memory in ccsd:                99998934
 Min. memory needed in ccsd:               4458306
 Max. memory used in ccsd:                 5958390
 Max. memory used in cckext:               6352469 (10 integral passes)



 **********************************************************************************************************************************
 DATASETS  * FILE   NREC   LENGTH (MB)   RECORD NAMES
              1      20      269.66       500      610      700      900      950      970     1000      129      960     1100   
                                          VAR    BASINP    GEOM    SYMINP    ZMAT    AOBASIS   BASIS     P2S    ABASIS      S 
                                         1400     1410     1200     1210     1080     1600     1650     1700      960(1)  1380   
                                           T        V       H0       H01     AOSYM     SMH    MOLCAS    OPER    ABASIS    JKOP   

              2       5        1.55       700     1000     2100     7360     7350   
                                         GEOM     BASIS     RHF    F12ABS    EF12   

 PROGRAMS   *        TOTAL   CCSD(T)        HF       INT
 CPU TIMES  *       128.26    114.96      4.14      9.08
 REAL TIME  *       135.45 SEC
 DISK USED  *         3.22 GB      
 SF USED    *         1.53 GB      
 GA USED    *         2.40 MB       (max)       0.00 MB       (current)
 **********************************************************************************************************************************

     CCSD(T)-F12        HF-SCF  
   -264.76454791   -263.77155972
 **********************************************************************************************************************************
 Variable memory released
