
 Primary working directories    : /scratch/kee
 Secondary working directories  : /scratch/kee
 Wavefunction directory         : /home/kee/wfu/
 Main file repository           : /scratch/kee/

 ARCHNAME  : Linux/x86_64
 FC        : /opt/intel/composer_xe_2015.0.090/bin/intel64/ifort
 FCVERSION : 15.0.0
 BLASLIB   : -L/opt/intel/mkl/lib/intel64 -lmkl_intel_ilp64 -lmkl_sequential -lmkl_core
 id        : emory

 Nodes     nprocs
 node22       3
 Number of processes for MPI-2 version of Molpro:   nprocs(total)=    4   nprocs(compute)=    3   nprocs(helper)=    1
 ga_uses_ma=false, calling ma_init with nominal heap.
 GA-space will be limited to   8.0 MW (determined by -G option)

 Using customized tuning parameters: mindgm=7; mindgv=32; mindgc=1; mindgr=1; noblas=0; mincuda=1000; minvec=7
 default implementation of scratch files=sf  

 ***,co2h2o
 memory,100,m
 basis avtz
 geomtype = xyz
 geometry = {
 6
    -264.76489694
 O     0.82869278    1.16169550    0.00000000
 O     0.82658011   -1.16233555    0.00000000
 O    -4.04123444    0.00160217    0.00000000
 H    -4.62486745    0.76219682    0.00000000
 H    -4.62459934   -0.75919975    0.00000000
 C     0.80876519   -0.00029961    0.00000000
 }
 hf
 ccsd(t)-f12
 ---

 Variables initialized (665), CPU time= 0.00 sec
 Commands  initialized (462), CPU time= 0.01 sec, 486 directives.
 Default parameters read. Elapsed time= 0.03 sec

 Checking input...
 Passed
1


                                         ***  PROGRAM SYSTEM MOLPRO  ***
                         Copyright, University College Cardiff Consultants Limited, 2008

                                    Version 2010.1 linked 9 Dec 2014 15:06:28 


 **********************************************************************************************************************************
 LABEL *   co2h2o                                                                        
 Linux-2.6.32-504.el6.x86_64/node22(x86_64) 64 bit mpp version                           DATE: 12-Dec-16          TIME: 19:35:49  
 **********************************************************************************************************************************

 Patch level:      19
 **********************************************************************************************************************************

 Variable memory set to  100000000 words,  buffer space   230000 words

 SETTING BASIS          =    AVTZ
 SETTING GEOMTYPE       =    XYZ

Geometry recognized as XYZ



 Recomputing integrals since basis changed


 Using spherical harmonics

 Library entry O      S aug-cc-pVTZ          selected for orbital group  1
 Library entry O      P aug-cc-pVTZ          selected for orbital group  1
 Library entry O      D aug-cc-pVTZ          selected for orbital group  1
 Library entry O      F aug-cc-pVTZ          selected for orbital group  1
 Library entry H      S aug-cc-pVTZ          selected for orbital group  2
 Library entry H      P aug-cc-pVTZ          selected for orbital group  2
 Library entry H      D aug-cc-pVTZ          selected for orbital group  2
 Library entry C      S aug-cc-pVTZ          selected for orbital group  3
 Library entry C      P aug-cc-pVTZ          selected for orbital group  3
 Library entry C      D aug-cc-pVTZ          selected for orbital group  3
 Library entry C      F aug-cc-pVTZ          selected for orbital group  3

1PROGRAM * SEWARD (Integral evaluation for generally contracted gaussian basis sets)     Author: Roland Lindh, 1990

 Geometry written to block  1 of record 700


 Point group  Cs  



 ATOMIC COORDINATES

 NR  ATOM    CHARGE       X              Y              Z

   1  O       8.00    1.566002401    2.195286343    0.000000000
   2  O       8.00    1.562010034   -2.196495862    0.000000000
   3  O       8.00   -7.636826324    0.003027663    0.000000000
   4  H       1.00   -8.739732875    1.440343248    0.000000000
   5  H       1.00   -8.739226220   -1.434679607    0.000000000
   6  C       6.00    1.528344714   -0.000566181    0.000000000

 Bond lengths in Bohr (Angstrom)

 1-6  2.196175405  2-6  2.196187724  3-4  1.811706088  3-5  1.811708509
     (1.162165971)     (1.162172490)     (0.958713571)     (0.958714852)

 Bond angles

  1-6-2  178.13918425   4-3-5  105.01947441

 NUCLEAR CHARGE:                   32
 NUMBER OF PRIMITIVE AOS:         322
 NUMBER OF SYMMETRY AOS:          282
 NUMBER OF CONTRACTIONS:          230   ( 152A'  +  78A"  )
 NUMBER OF CORE ORBITALS:           4   (   4A'  +   0A"  )
 NUMBER OF VALENCE ORBITALS:       18   (  14A'  +   4A"  )


 NUCLEAR REPULSION ENERGY   90.40370450


 Eigenvalues of metric

         1 0.344E-03 0.362E-03 0.383E-03 0.385E-03 0.898E-03 0.921E-03 0.164E-02 0.165E-02
         2 0.318E-02 0.348E-02 0.577E-02 0.124E-01 0.135E-01 0.283E-01 0.296E-01 0.313E-01


 Contracted 2-electron integrals neglected if value below      1.0D-11
 AO integral compression algorithm  1   Integral accuracy      1.0D-11

     482.607 MB (compressed) written to integral file ( 29.1%)

     Node minimum: 151.519 MB, node maximum: 168.559 MB


 NUMBER OF SORTED TWO-ELECTRON INTEGRALS:   59950380.     BUFFER LENGTH:  32768
 NUMBER OF SEGMENTS:   4  SEGMENT LENGTH:   15995235      RECORD LENGTH: 524288

 Memory used in sort:      16.55 MW

 SORT1 READ   207256561. AND WROTE    37650701. INTEGRALS IN    110 RECORDS. CPU TIME:     2.77 SEC, REAL TIME:     3.15 SEC
 SORT2 READ   113515658. AND WROTE   179836431. INTEGRALS IN   1929 RECORDS. CPU TIME:     1.20 SEC, REAL TIME:     3.42 SEC

 Node minimum:    59940574.  Node maximum:    59950380. integrals

 OPERATOR DM      FOR CENTER  0  COORDINATES:    0.000000    0.000000    0.000000


 **********************************************************************************************************************************
 DATASETS  * FILE   NREC   LENGTH (MB)   RECORD NAMES
              1      18        3.74       500      610      700      900      950      970     1000      129      960     1100   
                                          VAR    BASINP    GEOM    SYMINP    ZMAT    AOBASIS   BASIS     P2S    ABASIS      S 
                                         1400     1410     1200     1210     1080     1600     1650     1700   
                                           T        V       H0       H01     AOSYM     SMH    MOLCAS    OPER   

 PROGRAMS   *        TOTAL       INT
 CPU TIMES  *         7.76      7.70
 REAL TIME  *        10.53 SEC
 DISK USED  *         1.83 GB      
 GA USED    *         0.00 MB       (max)       0.00 MB       (current)
 **********************************************************************************************************************************

1PROGRAM * RHF-SCF (CLOSED SHELL)       Authors: W. Meyer, H.-J. Werner


 NUMBER OF ELECTRONS:      16+   16-
 CONVERGENCE THRESHOLDS:    1.00E-05 (Density)    1.00E-07 (Energy)
 MAX. NUMBER OF ITERATIONS:       60
 INTERPOLATION TYPE:            DIIS
 INTERPOLATION STEPS:              2 (START)      1 (STEP)
 LEVEL SHIFTS:                  0.00 (CLOSED)  0.00 (OPEN) 



 Orbital guess generated from atomic densities. Full valence occupancy:   18   4

 Molecular orbital dump at record        2100.2

 Initial alpha occupancy:  13   3
 Initial beta  occupancy:  13   3
 Wave function symmetry:    1

 ITERATION    DDIFF          GRAD             ENERGY        2-EL.EN.            DIPOLE MOMENTS         DIIS
    1      0.000D+00      0.000D+00      -263.66184141    376.662230   -1.18428   -0.00012    0.00000    0
    2      0.000D+00      0.627D-02      -263.72683431    371.990963   -0.71766   -0.00009    0.00000    1
    3      0.101D-01      0.425D-02      -263.76959755    374.558912   -0.83183   -0.00008    0.00000    2
    4      0.414D-02      0.402D-03      -263.77009253    374.351053   -0.83481   -0.00009    0.00000    3
    5      0.486D-03      0.117D-03      -263.77015056    374.350623   -0.82974   -0.00008    0.00000    4
    6      0.182D-03      0.474D-04      -263.77015778    374.365671   -0.83047   -0.00009    0.00000    5
    7      0.606D-04      0.115D-04      -263.77015851    374.357205   -0.83003   -0.00008    0.00000    6
    8      0.197D-04      0.254D-05      -263.77015856    374.358516   -0.83004   -0.00009    0.00000    7
    9      0.541D-05      0.850D-06      -263.77015856    374.358313   -0.83001   -0.00008    0.00000    0

 Final occupancy:  13   3

 !RHF STATE 1.1 Energy               -263.770158559459
 Nuclear energy                        90.40370450
 One-electron energy                 -541.35301963
 Two-electron energy                  187.17915657
 Virial quotient                       -1.00183669
 !RHF STATE 1.1 Dipole moment          -0.83001453    -0.00008437     0.00000000
 Dipole moment /Debye                  -2.10954834    -0.00021443     0.00000000

 Orbital energies:

         1.1          2.1          3.1          4.1          5.1          6.1          7.1          8.1          9.1         10.1
    -20.645114   -20.645068   -20.569859   -11.454081    -1.522774    -1.469715    -1.355116    -0.793246    -0.735554    -0.720610

        11.1         12.1         13.1         14.1         15.1
     -0.706652    -0.586663    -0.536528     0.027952     0.047203

         1.2          2.2          3.2          4.2          5.2
     -0.706915    -0.536647    -0.512812     0.079463     0.160538


 **********************************************************************************************************************************
 DATASETS  * FILE   NREC   LENGTH (MB)   RECORD NAMES
              1      18        3.76       500      610      700      900      950      970     1000      129      960     1100   
                                          VAR    BASINP    GEOM    SYMINP    ZMAT    AOBASIS   BASIS     P2S    ABASIS      S 
                                         1400     1410     1200     1210     1080     1600     1650     1700   
                                           T        V       H0       H01     AOSYM     SMH    MOLCAS    OPER   

              2       3        0.96       700     1000     2100   
                                         GEOM     BASIS     RHF  

 PROGRAMS   *        TOTAL        HF       INT
 CPU TIMES  *        11.95      4.19      7.70
 REAL TIME  *        15.01 SEC
 DISK USED  *         1.85 GB      
 SF USED    *         0.12 MB      
 GA USED    *         0.00 MB       (max)       0.00 MB       (current)
 **********************************************************************************************************************************


1PROGRAM * CCSD (Closed-shell coupled cluster)     Authors: C. Hampel, H.-J. Werner, 1991, M. Deegan, P.J. Knowles, 1992

                                  CCSD-F12 implementation by  H.-J. Werner, 2007

                   Density fitting integral evaluation by F.R. Manby, 2003,2007, G. Knizia, 2010

 Basis set CC-PVTZ/JKFIT generated.      Number of basis functions:   376 
 Basis set AUG-CC-PVTZ/MP2FIT generated. Number of basis functions:   516 

 Convergence thresholds:  THRVAR = 1.00D-08  THRDEN = 1.00D-06

 CCSD(T)     terms to be evaluated (factor= 1.000)


 Number of core orbitals:           4 (   4   0 )
 Number of closed-shell orbitals:  12 (   9   3 )
 Number of external orbitals:     214 ( 139  75 )

 Molecular orbitals read from record     2100.2  Type=RHF/CANONICAL (state 1.1)

 MP2-F12 correlation treatment (H.-J. Werner, 2006)
 --------------------------------------------------

 Using MP2-F12 with ansatz 3C(FIX)

 Using projected zeroth-order Hamiltonian (+Z)

 FOCKRIB=T FOCKRIC=T FOCKRIP=T CABSP=T CABSA=T CABSK=T CABSF=T GBC=F EBC=F DMAT=T NOFIK=T NOPAO=1 SOLVE=-1  USEPAO=0
 EXCH_A= T EXCH_B= F EXCH_C= F EXCH_P= F
 
 Geminal basis:    OPTFULL  GEM_TYPE=SLATER  BETA=1.0  NGEM=6

 Optimizing Gaussian exponents for each gem_beta

 Geminal optimization for beta= 1.0000
 Weight function:   m=0, omega= 1.4646

 Augmented Hessian optimization of geminal fit. Trust ratio= 0.40000
 Convergence reached after   2 iterations. Final gradient= 8.24D-16, Step= 4.32D-06, Delta= 1.28D-09
 
 Alpha:                 0.19532     0.81920     2.85917     9.50073    35.69989   197.79328
 Coeff:                 0.27070     0.30552     0.18297     0.10986     0.06810     0.04224
 

 Symmetry turned off. Reference energy:       -263.770158559458

 All pairs explicitly correlated. Number of r12-pairs:           78
 
 AO(A)-basis ORBITAL           loaded. Number of functions:     230
 RI(R)-basis CC-PVTZ/JKFIT     loaded. Number of functions:     376
 DF-basis CC-PVTZ/JKFIT        loaded. Number of functions:     376

 Screening thresholds:   THRAO=  1.00D-10  THRMO=  1.00D-09  THRPROD=  1.00D-09
                         THRSW=  1.00D-05  THROV=  1.00D-12  THRF12=   1.00D-08

 CPU time for Fock operators                      0.93 sec
 
 Construction of ABS:
 Smallest eigenvalue of S          2.57E-04  (threshold= 1.00E-08)
 Ratio eigmin/eigmax               1.83E-06  (threshold= 1.00E-09)
 Smallest eigenvalue of S kept     2.57E-04  (threshold= 2.57E-04, 0 functions deleted, 376 kept)
 
 Construction of CABS:
 Smallest eigenvalue of S          2.30E-08  (threshold= 1.00E-08)
 Ratio eigmin/eigmax               2.30E-08  (threshold= 1.00E-09)
 Smallest eigenvalue of S kept     2.30E-08  (threshold= 2.30E-08, 0 functions deleted, 376 kept)
 
 CPU time for CABS singles                        0.16 sec

 CABS-singles contribution of  -0.01592060 patched into reference energy.
 New reference energy        -263.78607916
 
 AO(A)-basis ORBITAL           loaded. Number of functions:     230
 RI(R)-basis CC-PVTZ/JKFIT     loaded. Number of functions:     376
 DF-basis AUG-CC-PVTZ/MP2FIT   loaded. Number of functions:     516

 Screening thresholds:   THRAO=  1.00D-10  THRMO=  1.00D-09  THRPROD=  1.00D-09
                         THRSW=  1.00D-05  THROV=  1.00D-12  THRF12=   1.00D-08

 CPU time for 3-index integral evaluation         2.34 sec
 CPU time for first  half transformation          0.30 sec ( 9484.4 MFLOP/sec)
 CPU time for second half transformation          0.03 sec ( 3292.1 MFLOP/sec)
 CPU time for sorting                             0.17 sec
 CPU time for fitting                             0.04 sec (34826.3 MFLOP/sec)
 CPU time for tilde quantities                    0.06 sec (30814.7 MFLOP/sec)
 CPU time for assembly                            0.82 sec (29248.3 MFLOP/sec)
 CPU time for tranop_f12                          0.88 sec (34290.0 MFLOP/sec)
 CPU time for f12 integrals (total)               6.71 sec
 F12-matrices built in  3 passes.
 F12-matrices built in  3 passes.
 F12-matrices built in  3 passes.
 F12-matrices built in  3 passes.
 FC-matrix built in  3 passes.
 CPU time for f12 matrices (total)                0.48 sec

 Diagonal F12 approximation with fixed coefficients:  TSING= 0.500,  TTRIP= 0.250 (scaled by -1/beta)

 DF-MP2-F12 energy corrections:
 ------------------------------
 Approx.                                    Singlet             Triplet             Total
 DF-MP2-F12/3*C(DX,FIX)                -0.097437827574     -0.016931498071     -0.114369325645
 DF-MP2-F12/3*C(FIX)                   -0.079858330757     -0.013394122514     -0.093252453271
 DF-MP2-F12/3C(FIX)                    -0.080219861939     -0.013417830515     -0.093637692454

 DF-MP2-F12 correlation energies:
 --------------------------------
 Approx.                                    Singlet             Triplet             Ecorr            Total Energy
 DF-MP2                                -0.537680777228     -0.343077281376     -0.880758058604   -264.666837217876
 DF-MP2-F12/3*C(DX,FIX)                -0.635118604801     -0.360008779447     -0.995127384248   -264.781206543521
 DF-MP2-F12/3*C(FIX)                   -0.617539107984     -0.356471403890     -0.974010511874   -264.760089671147
 DF-MP2-F12/3C(FIX)                    -0.617900639167     -0.356495111891     -0.974395751058   -264.760474910330

 SCS-DF-MP2 energies (F_SING= 1.20000  F_TRIP= 0.62222  F_PARALLEL= 0.33333):
 ----------------------------------------------------------------------------
 SCS-DF-MP2                            -0.858687241085   -264.644766400357
 SCS-DF-MP2-F12/3*C(DX,FIX)            -0.986147788529   -264.772226947801
 SCS-DF-MP2-F12/3*C(FIX)               -0.962851358668   -264.748930517941
 SCS-DF-MP2-F12/3C(FIX)                -0.963299947732   -264.749379107005

 Symmetry restored.
 Symmetry transformation completed.

 Number of N-1 electron functions:              12
 Number of N-2 electron functions:              78
 Number of singly external CSFs:              1476
 Number of doubly external CSFs:           1686804
 Total number of CSFs:                     1688281

 Pair and operator lists are different

 Length of J-op  integral file:             466.42 MB
 Length of K-op  integral file:             526.62 MB
 Length of 3-ext integral record:             0.00 MB

 Memory could be reduced to 76.61 Mwords without degradation in triples

 Integral transformation finished. Total CPU:   4.56 sec, npass=  1  Memory used:  24.61 MW

 Reference energy:                   -263.78607916

 Adding F12 terms to K(Cij), methodcc=6,  factor=1.0

 ITER.      SQ.NORM     CORR.ENERGY   TOTAL ENERGY   ENERGY CHANGE        DEN1      VAR(S)    VAR(P)  DIIS     TIME
   1      1.20210756    -0.86272555  -264.64880471     0.01804873     0.04665205  0.72D-02  0.56D-02  1  1    16.03
   2      1.21641024    -0.85850942  -264.64458858     0.00421613    -0.02013688  0.86D-04  0.59D-03  2  2    18.86
   3      1.22177079    -0.85860762  -264.64468678    -0.00009820    -0.00236460  0.13D-03  0.32D-04  3  3    21.71
   4      1.22457267    -0.85848007  -264.64455923     0.00012755    -0.00141111  0.76D-05  0.41D-05  4  4    24.53
   5      1.22560232    -0.85844244  -264.64452160     0.00003763    -0.00036605  0.56D-06  0.28D-06  5  5    27.35
   6      1.22576443    -0.85841558  -264.64449473     0.00002686    -0.00000804  0.40D-07  0.24D-07  6  6    30.20
   7      1.22579378    -0.85841316  -264.64449231     0.00000242    -0.00000621  0.26D-08  0.40D-08  6  4    33.12
   8      1.22579409    -0.85841266  -264.64449182     0.00000049     0.00000194  0.39D-09  0.27D-09  6  1    36.00
   9      1.22579470    -0.85841273  -264.64449189    -0.00000007     0.00000056  0.26D-10  0.21D-10  6  2    38.84

 Norm of t1 vector:      0.10595699      S-energy:    -0.00000003      T1 diagnostic:  0.01529357
                                                                       D1 diagnostic:  0.04499598

 Adding energy correction from Wij-K(Fij), methodcc=6  factor=1.0
 
  CCSD correlation energy              -0.858412731072
  MP2-F12 correction (uncoupled)       -0.092480659737
  C*T doubles correction               -0.001474581437
  f12b correction                       0.015406196409


 Total CPU time for triples:     88.07 sec


 RESULTS
 =======

  Reference energy                   -263.770158559459
  F12 singles correction               -0.015920599814

 F12 singles corrections added to reference energy

  New reference energy               -263.786079159273

  F12a singlet correction              -0.080418996721
  F12a triplet correction              -0.013536244453
  F12a total correction                -0.093955241174

 F12a corrections for ansatz F12/3C(FIX) added to CCSD energy
 
  CCSD-F12a singlet pair energy        -0.641835254960
  CCSD-F12a triplet pair energy        -0.310532691355
  CCSD-F12a correlation energy         -0.952367972246

  Triples (T) contribution             -0.037636584288
  Total correlation energy             -0.990004556534

  CCSD-F12a total energy             -264.738447131519
  CCSD[T]-F12a energy                -264.778624699518
  CCSD-T-F12a energy                 -264.775147634634
 !CCSD(T)-F12a total energy          -264.776083715807

 F12b corrections for ansatz F12/3C(FIX) added to CCSD(T)-F12a energy

  CCSD-F12b singlet pair energy        -0.627652483953
  CCSD-F12b triplet pair energy        -0.309309265954
  CCSD-F12b correlation energy         -0.936961775837

  Triples (T) contribution             -0.037636584288
  Total correlation energy             -0.974598360125

  CCSD-F12b total energy             -264.723040935110
  CCSD[T]-F12b energy                -264.763218503108
  CCSD-T-F12b energy                 -264.759741438225
 !CCSD(T)-F12b total energy          -264.760677519398

 Timing summary (sec):

 STEP                 CPU(USER)    SYS     CPU(TOT)    WALL
 Transformation          4.59      0.55      5.14      5.13
 CCSD iterations        25.55      1.50     27.05     27.05
 Triples                88.07      2.06     90.13     90.11
 MP2-F12                 8.70      1.12      9.82      9.83
 F12b energy             1.89      0.03      1.92      1.92

 Program statistics:

 Available memory in ccsd:                99998934
 Min. memory needed in ccsd:               4458306
 Max. memory used in ccsd:                 5958390
 Max. memory used in cckext:               6352469 (10 integral passes)



 **********************************************************************************************************************************
 DATASETS  * FILE   NREC   LENGTH (MB)   RECORD NAMES
              1      20      269.66       500      610      700      900      950      970     1000      129      960     1100   
                                          VAR    BASINP    GEOM    SYMINP    ZMAT    AOBASIS   BASIS     P2S    ABASIS      S 
                                         1400     1410     1200     1210     1080     1600     1650     1700      960(1)  1380   
                                           T        V       H0       H01     AOSYM     SMH    MOLCAS    OPER    ABASIS    JKOP   

              2       5        1.55       700     1000     2100     7360     7350   
                                         GEOM     BASIS     RHF    F12ABS    EF12   

 PROGRAMS   *        TOTAL   CCSD(T)        HF       INT
 CPU TIMES  *       140.87    128.91      4.19      7.70
 REAL TIME  *       149.38 SEC
 DISK USED  *         2.29 GB      
 SF USED    *         1.53 GB      
 GA USED    *         2.40 MB       (max)       0.00 MB       (current)
 **********************************************************************************************************************************

     CCSD(T)-F12        HF-SCF  
   -264.76067752   -263.77015856
 **********************************************************************************************************************************
 Variable memory released
