
 Primary working directories    : /scratch/kee
 Secondary working directories  : /scratch/kee
 Wavefunction directory         : /home/kee/wfu/
 Main file repository           : /scratch/kee/

 ARCHNAME  : Linux/x86_64
 FC        : /opt/intel/composer_xe_2015.0.090/bin/intel64/ifort
 FCVERSION : 15.0.0
 BLASLIB   : -L/opt/intel/mkl/lib/intel64 -lmkl_intel_ilp64 -lmkl_sequential -lmkl_core
 id        : emory

 Nodes     nprocs
 node22       3
 Number of processes for MPI-2 version of Molpro:   nprocs(total)=    4   nprocs(compute)=    3   nprocs(helper)=    1
 ga_uses_ma=false, calling ma_init with nominal heap.
 GA-space will be limited to   8.0 MW (determined by -G option)

 Using customized tuning parameters: mindgm=7; mindgv=32; mindgc=1; mindgr=1; noblas=0; mincuda=1000; minvec=7
 default implementation of scratch files=sf  

 ***,co2h2o
 memory,100,m
 basis avtz
 geomtype = xyz
 geometry = {
 6
    -264.76489694
 O     0.82869278    1.16169550    0.00000000
 O     0.82658011   -1.16233555    0.00000000
 O    -1.59123463    0.00064148    0.00000000
 H    -2.17486764    0.76123613    0.00000000
 H    -2.17459953   -0.76016044    0.00000000
 C     0.80876519   -0.00029961    0.00000000
 }
 hf
 ccsd(t)-f12
 ---

 Variables initialized (665), CPU time= 0.00 sec
 Commands  initialized (462), CPU time= 0.01 sec, 486 directives.
 Default parameters read. Elapsed time= 0.03 sec

 Checking input...
 Passed
1


                                         ***  PROGRAM SYSTEM MOLPRO  ***
                         Copyright, University College Cardiff Consultants Limited, 2008

                                    Version 2010.1 linked 9 Dec 2014 15:06:28 


 **********************************************************************************************************************************
 LABEL *   co2h2o                                                                        
 Linux-2.6.32-504.el6.x86_64/node22(x86_64) 64 bit mpp version                           DATE: 12-Dec-16          TIME: 17:42:01  
 **********************************************************************************************************************************

 Patch level:      19
 **********************************************************************************************************************************

 Variable memory set to  100000000 words,  buffer space   230000 words

 SETTING BASIS          =    AVTZ
 SETTING GEOMTYPE       =    XYZ

Geometry recognized as XYZ



 Recomputing integrals since basis changed


 Using spherical harmonics

 Library entry O      S aug-cc-pVTZ          selected for orbital group  1
 Library entry O      P aug-cc-pVTZ          selected for orbital group  1
 Library entry O      D aug-cc-pVTZ          selected for orbital group  1
 Library entry O      F aug-cc-pVTZ          selected for orbital group  1
 Library entry H      S aug-cc-pVTZ          selected for orbital group  2
 Library entry H      P aug-cc-pVTZ          selected for orbital group  2
 Library entry H      D aug-cc-pVTZ          selected for orbital group  2
 Library entry C      S aug-cc-pVTZ          selected for orbital group  3
 Library entry C      P aug-cc-pVTZ          selected for orbital group  3
 Library entry C      D aug-cc-pVTZ          selected for orbital group  3
 Library entry C      F aug-cc-pVTZ          selected for orbital group  3

1PROGRAM * SEWARD (Integral evaluation for generally contracted gaussian basis sets)     Author: Roland Lindh, 1990

 Geometry written to block  1 of record 700


 Point group  Cs  



 ATOMIC COORDINATES

 NR  ATOM    CHARGE       X              Y              Z

   1  O       8.00    1.566002401    2.195286343    0.000000000
   2  O       8.00    1.562010034   -2.196495862    0.000000000
   3  O       8.00   -3.006997662    0.001212222    0.000000000
   4  H       1.00   -4.109904212    1.438527807    0.000000000
   5  H       1.00   -4.109397557   -1.436495048    0.000000000
   6  C       6.00    1.528344714   -0.000566181    0.000000000

 Bond lengths in Bohr (Angstrom)

 1-6  2.196175405  2-6  2.196187724  3-4  1.811706088  3-5  1.811708509
     (1.162165971)     (1.162172490)     (0.958713571)     (0.958714852)

 Bond angles

  1-6-2  178.13918425   4-3-5  105.01947441

 NUCLEAR CHARGE:                   32
 NUMBER OF PRIMITIVE AOS:         322
 NUMBER OF SYMMETRY AOS:          282
 NUMBER OF CONTRACTIONS:          230   ( 152A'  +  78A"  )
 NUMBER OF CORE ORBITALS:           4   (   4A'  +   0A"  )
 NUMBER OF VALENCE ORBITALS:       18   (  14A'  +   4A"  )


 NUCLEAR REPULSION ENERGY  110.52124640


 Eigenvalues of metric

         1 0.212E-03 0.237E-03 0.282E-03 0.313E-03 0.497E-03 0.751E-03 0.839E-03 0.137E-02
         2 0.295E-02 0.346E-02 0.494E-02 0.116E-01 0.124E-01 0.241E-01 0.287E-01 0.291E-01


 Contracted 2-electron integrals neglected if value below      1.0D-11
 AO integral compression algorithm  1   Integral accuracy      1.0D-11

     785.383 MB (compressed) written to integral file ( 47.3%)

     Node minimum: 249.823 MB, node maximum: 274.465 MB


 NUMBER OF SORTED TWO-ELECTRON INTEGRALS:   59950380.     BUFFER LENGTH:  32768
 NUMBER OF SEGMENTS:   4  SEGMENT LENGTH:   15995235      RECORD LENGTH: 524288

 Memory used in sort:      16.55 MW

 SORT1 READ   207531521. AND WROTE    57070338. INTEGRALS IN    165 RECORDS. CPU TIME:     3.27 SEC, REAL TIME:     3.86 SEC
 SORT2 READ   171631341. AND WROTE   179836431. INTEGRALS IN   2988 RECORDS. CPU TIME:     1.10 SEC, REAL TIME:     1.59 SEC

 Node minimum:    59940574.  Node maximum:    59950380. integrals

 OPERATOR DM      FOR CENTER  0  COORDINATES:    0.000000    0.000000    0.000000


 **********************************************************************************************************************************
 DATASETS  * FILE   NREC   LENGTH (MB)   RECORD NAMES
              1      18        3.74       500      610      700      900      950      970     1000      129      960     1100   
                                          VAR    BASINP    GEOM    SYMINP    ZMAT    AOBASIS   BASIS     P2S    ABASIS      S 
                                         1400     1410     1200     1210     1080     1600     1650     1700   
                                           T        V       H0       H01     AOSYM     SMH    MOLCAS    OPER   

 PROGRAMS   *        TOTAL       INT
 CPU TIMES  *         9.05      8.99
 REAL TIME  *        10.38 SEC
 DISK USED  *         2.83 GB      
 GA USED    *         0.00 MB       (max)       0.00 MB       (current)
 **********************************************************************************************************************************

1PROGRAM * RHF-SCF (CLOSED SHELL)       Authors: W. Meyer, H.-J. Werner


 NUMBER OF ELECTRONS:      16+   16-
 CONVERGENCE THRESHOLDS:    1.00E-05 (Density)    1.00E-07 (Energy)
 MAX. NUMBER OF ITERATIONS:       60
 INTERPOLATION TYPE:            DIIS
 INTERPOLATION STEPS:              2 (START)      1 (STEP)
 LEVEL SHIFTS:                  0.00 (CLOSED)  0.00 (OPEN) 



 Orbital guess generated from atomic densities. Full valence occupancy:   18   4

 Molecular orbital dump at record        2100.2

 Initial alpha occupancy:  13   3
 Initial beta  occupancy:  13   3
 Wave function symmetry:    1

 ITERATION    DDIFF          GRAD             ENERGY        2-EL.EN.            DIPOLE MOMENTS         DIIS
    1      0.000D+00      0.000D+00      -263.66732022    417.650232   -1.28931   -0.00004    0.00000    0
    2      0.000D+00      0.608D-02      -263.73004874    412.918554   -0.98362    0.00000    0.00000    1
    3      0.985D-02      0.400D-02      -263.76762918    415.277859   -1.01498    0.00003    0.00000    2
    4      0.393D-02      0.411D-03      -263.76815556    415.136560   -1.00927    0.00001    0.00000    3
    5      0.501D-03      0.126D-03      -263.76821700    415.104643   -1.00320    0.00002    0.00000    4
    6      0.189D-03      0.510D-04      -263.76822517    415.125131   -1.00351    0.00001    0.00000    5
    7      0.625D-04      0.108D-04      -263.76822589    415.116837   -1.00311    0.00002    0.00000    6
    8      0.202D-04      0.246D-05      -263.76822593    415.118373   -1.00317    0.00001    0.00000    7
    9      0.506D-05      0.832D-06      -263.76822593    415.118063   -1.00316    0.00002    0.00000    0

 Final occupancy:  13   3

 !RHF STATE 1.1 Energy               -263.768225933608
 Nuclear energy                       110.52124640
 One-electron energy                 -581.84850398
 Two-electron energy                  207.55903165
 Virial quotient                       -1.00154809
 !RHF STATE 1.1 Dipole moment          -1.00316228     0.00001628     0.00000000
 Dipole moment /Debye                  -2.54961719     0.00004138     0.00000000

 Orbital energies:

         1.1          2.1          3.1          4.1          5.1          6.1          7.1          8.1          9.1         10.1
    -20.622186   -20.622140   -20.582946   -11.435964    -1.502832    -1.449617    -1.372265    -0.775198    -0.736832    -0.717167

        11.1         12.1         13.1         14.1         15.1
     -0.703502    -0.591051    -0.519032     0.024005     0.047397

         1.2          2.2          3.2          4.2          5.2
     -0.687519    -0.529906    -0.517064     0.082955     0.167188


 **********************************************************************************************************************************
 DATASETS  * FILE   NREC   LENGTH (MB)   RECORD NAMES
              1      18        3.76       500      610      700      900      950      970     1000      129      960     1100   
                                          VAR    BASINP    GEOM    SYMINP    ZMAT    AOBASIS   BASIS     P2S    ABASIS      S 
                                         1400     1410     1200     1210     1080     1600     1650     1700   
                                           T        V       H0       H01     AOSYM     SMH    MOLCAS    OPER   

              2       3        0.96       700     1000     2100   
                                         GEOM     BASIS     RHF  

 PROGRAMS   *        TOTAL        HF       INT
 CPU TIMES  *        13.15      4.10      8.99
 REAL TIME  *        14.88 SEC
 DISK USED  *         2.85 GB      
 SF USED    *         0.12 MB      
 GA USED    *         0.00 MB       (max)       0.00 MB       (current)
 **********************************************************************************************************************************


1PROGRAM * CCSD (Closed-shell coupled cluster)     Authors: C. Hampel, H.-J. Werner, 1991, M. Deegan, P.J. Knowles, 1992

                                  CCSD-F12 implementation by  H.-J. Werner, 2007

                   Density fitting integral evaluation by F.R. Manby, 2003,2007, G. Knizia, 2010

 Basis set CC-PVTZ/JKFIT generated.      Number of basis functions:   376 
 Basis set AUG-CC-PVTZ/MP2FIT generated. Number of basis functions:   516 

 Convergence thresholds:  THRVAR = 1.00D-08  THRDEN = 1.00D-06

 CCSD(T)     terms to be evaluated (factor= 1.000)


 Number of core orbitals:           4 (   4   0 )
 Number of closed-shell orbitals:  12 (   9   3 )
 Number of external orbitals:     214 ( 139  75 )

 Molecular orbitals read from record     2100.2  Type=RHF/CANONICAL (state 1.1)

 MP2-F12 correlation treatment (H.-J. Werner, 2006)
 --------------------------------------------------

 Using MP2-F12 with ansatz 3C(FIX)

 Using projected zeroth-order Hamiltonian (+Z)

 FOCKRIB=T FOCKRIC=T FOCKRIP=T CABSP=T CABSA=T CABSK=T CABSF=T GBC=F EBC=F DMAT=T NOFIK=T NOPAO=1 SOLVE=-1  USEPAO=0
 EXCH_A= T EXCH_B= F EXCH_C= F EXCH_P= F
 
 Geminal basis:    OPTFULL  GEM_TYPE=SLATER  BETA=1.0  NGEM=6

 Optimizing Gaussian exponents for each gem_beta

 Geminal optimization for beta= 1.0000
 Weight function:   m=0, omega= 1.4646

 Augmented Hessian optimization of geminal fit. Trust ratio= 0.40000
 Convergence reached after   2 iterations. Final gradient= 8.24D-16, Step= 4.32D-06, Delta= 1.28D-09
 
 Alpha:                 0.19532     0.81920     2.85917     9.50073    35.69989   197.79328
 Coeff:                 0.27070     0.30552     0.18297     0.10986     0.06810     0.04224
 

 Symmetry turned off. Reference energy:       -263.768225933607

 All pairs explicitly correlated. Number of r12-pairs:           78
 
 AO(A)-basis ORBITAL           loaded. Number of functions:     230
 RI(R)-basis CC-PVTZ/JKFIT     loaded. Number of functions:     376
 DF-basis CC-PVTZ/JKFIT        loaded. Number of functions:     376

 Screening thresholds:   THRAO=  1.00D-10  THRMO=  1.00D-09  THRPROD=  1.00D-09
                         THRSW=  1.00D-05  THROV=  1.00D-12  THRF12=   1.00D-08

 CPU time for Fock operators                      1.00 sec
 
 Construction of ABS:
 Smallest eigenvalue of S          2.38E-04  (threshold= 1.00E-08)
 Ratio eigmin/eigmax               1.69E-06  (threshold= 1.00E-09)
 Smallest eigenvalue of S kept     2.38E-04  (threshold= 2.38E-04, 0 functions deleted, 376 kept)
 
 Construction of CABS:
 Smallest eigenvalue of S          2.23E-08  (threshold= 1.00E-08)
 Ratio eigmin/eigmax               2.23E-08  (threshold= 1.00E-09)
 Smallest eigenvalue of S kept     2.23E-08  (threshold= 2.23E-08, 0 functions deleted, 376 kept)
 
 CPU time for CABS singles                        0.16 sec

 CABS-singles contribution of  -0.01590715 patched into reference energy.
 New reference energy        -263.78413308
 
 AO(A)-basis ORBITAL           loaded. Number of functions:     230
 RI(R)-basis CC-PVTZ/JKFIT     loaded. Number of functions:     376
 DF-basis AUG-CC-PVTZ/MP2FIT   loaded. Number of functions:     516

 Screening thresholds:   THRAO=  1.00D-10  THRMO=  1.00D-09  THRPROD=  1.00D-09
                         THRSW=  1.00D-05  THROV=  1.00D-12  THRF12=   1.00D-08

 CPU time for 3-index integral evaluation         2.98 sec
 CPU time for first  half transformation          0.28 sec (10267.9 MFLOP/sec)
 CPU time for second half transformation          0.05 sec ( 2015.5 MFLOP/sec)
 CPU time for sorting                             0.16 sec
 CPU time for fitting                             0.05 sec (27861.0 MFLOP/sec)
 CPU time for tilde quantities                    0.06 sec (30814.7 MFLOP/sec)
 CPU time for assembly                            0.76 sec (30656.3 MFLOP/sec)
 CPU time for tranop_f12                          0.86 sec (33613.0 MFLOP/sec)
 CPU time for f12 integrals (total)               7.18 sec
 F12-matrices built in  3 passes.
 F12-matrices built in  3 passes.
 F12-matrices built in  3 passes.
 F12-matrices built in  3 passes.
 FC-matrix built in  3 passes.
 CPU time for f12 matrices (total)                0.46 sec

 Diagonal F12 approximation with fixed coefficients:  TSING= 0.500,  TTRIP= 0.250 (scaled by -1/beta)

 DF-MP2-F12 energy corrections:
 ------------------------------
 Approx.                                    Singlet             Triplet             Total
 DF-MP2-F12/3*C(DX,FIX)                -0.097424781080     -0.017076084799     -0.114500865879
 DF-MP2-F12/3*C(FIX)                   -0.079812005006     -0.013562818027     -0.093374823033
 DF-MP2-F12/3C(FIX)                    -0.080188909305     -0.013609021992     -0.093797931297

 DF-MP2-F12 correlation energies:
 --------------------------------
 Approx.                                    Singlet             Triplet             Ecorr            Total Energy
 DF-MP2                                -0.537917874716     -0.345920458899     -0.883838333615   -264.667971416850
 DF-MP2-F12/3*C(DX,FIX)                -0.635342655797     -0.362996543698     -0.998339199495   -264.782472282729
 DF-MP2-F12/3*C(FIX)                   -0.617729879722     -0.359483276926     -0.977213156648   -264.761346239882
 DF-MP2-F12/3C(FIX)                    -0.618106784021     -0.359529480891     -0.977636264913   -264.761769348147

 SCS-DF-MP2 energies (F_SING= 1.20000  F_TRIP= 0.62222  F_PARALLEL= 0.33333):
 ----------------------------------------------------------------------------
 SCS-DF-MP2                            -0.860740846308   -264.644873929542
 SCS-DF-MP2-F12/3*C(DX,FIX)            -0.988275703035   -264.772408786269
 SCS-DF-MP2-F12/3*C(FIX)               -0.964954339087   -264.749087422321
 SCS-DF-MP2-F12/3C(FIX)                -0.965435373380   -264.749568456614

 Symmetry restored.
 Symmetry transformation completed.

 Number of N-1 electron functions:              12
 Number of N-2 electron functions:              78
 Number of singly external CSFs:              1476
 Number of doubly external CSFs:           1686804
 Total number of CSFs:                     1688281

 Pair and operator lists are different

 Length of J-op  integral file:             466.42 MB
 Length of K-op  integral file:             526.62 MB
 Length of 3-ext integral record:             0.00 MB

 Memory could be reduced to 76.61 Mwords without degradation in triples

 Integral transformation finished. Total CPU:   4.16 sec, npass=  1  Memory used:  24.61 MW

 Reference energy:                   -263.78413308

 Adding F12 terms to K(Cij), methodcc=6,  factor=1.0

 ITER.      SQ.NORM     CORR.ENERGY   TOTAL ENERGY   ENERGY CHANGE        DEN1      VAR(S)    VAR(P)  DIIS     TIME
   1      1.20179168    -0.86557562  -264.64970871     0.01827351     0.04668287  0.72D-02  0.55D-02  1  1    16.12
   2      1.21603851    -0.86145265  -264.64558573     0.00412298    -0.02009007  0.91D-04  0.58D-03  2  2    18.91
   3      1.22140554    -0.86158027  -264.64571335    -0.00012762    -0.00233680  0.13D-03  0.31D-04  3  3    21.73
   4      1.22422878    -0.86144830  -264.64558138     0.00013196    -0.00141216  0.81D-05  0.40D-05  4  4    24.93
   5      1.22527167    -0.86141187  -264.64554495     0.00003643    -0.00036467  0.68D-06  0.28D-06  5  5    27.76
   6      1.22543896    -0.86138458  -264.64551766     0.00002729    -0.00000746  0.49D-07  0.27D-07  6  6    30.61
   7      1.22547261    -0.86138164  -264.64551472     0.00000294    -0.00000669  0.53D-08  0.40D-08  6  2    33.43
   8      1.22547351    -0.86138130  -264.64551438     0.00000034     0.00000200  0.48D-09  0.36D-09  6  1    36.22
   9      1.22547401    -0.86138140  -264.64551448    -0.00000010     0.00000078  0.59D-10  0.29D-10  6  4    39.02

 Norm of t1 vector:      0.10691767      S-energy:     0.00000007      T1 diagnostic:  0.01543224
                                                                       D1 diagnostic:  0.04673502

 Adding energy correction from Wij-K(Fij), methodcc=6  factor=1.0
 
  CCSD correlation energy              -0.861381398432
  MP2-F12 correction (uncoupled)       -0.092614729847
  C*T doubles correction               -0.001480185483
  f12b correction                       0.015428691090


 Total CPU time for triples:     70.73 sec


 RESULTS
 =======

  Reference energy                   -263.768225933608
  F12 singles correction               -0.015907149627

 F12 singles corrections added to reference energy

  New reference energy               -263.784133083234

  F12a singlet correction              -0.080380819976
  F12a triplet correction              -0.013714095353
  F12a total correction                -0.094094915330

 F12a corrections for ansatz F12/3C(FIX) added to CCSD energy
 
  CCSD-F12a singlet pair energy        -0.641587911623
  CCSD-F12a triplet pair energy        -0.313888471382
  CCSD-F12a correlation energy         -0.955476313762

  Triples (T) contribution             -0.038107134144
  Total correlation energy             -0.993583447906

  CCSD-F12a total energy             -264.739609396996
  CCSD[T]-F12a energy                -264.780261134276
  CCSD-T-F12a energy                 -264.776792144227
 !CCSD(T)-F12a total energy          -264.777716531141

 F12b corrections for ansatz F12/3C(FIX) added to CCSD(T)-F12a energy

  CCSD-F12b singlet pair energy        -0.627402375582
  CCSD-F12b triplet pair energy        -0.312645316334
  CCSD-F12b correlation energy         -0.940047622672

  Triples (T) contribution             -0.038107134144
  Total correlation energy             -0.978154756817

  CCSD-F12b total energy             -264.724180705907
  CCSD[T]-F12b energy                -264.764832443186
  CCSD-T-F12b energy                 -264.761363453137
 !CCSD(T)-F12b total energy          -264.762287840051

 Timing summary (sec):

 STEP                 CPU(USER)    SYS     CPU(TOT)    WALL
 Transformation          4.19      0.55      4.74      5.30
 CCSD iterations        25.61      1.64     27.25     28.01
 Triples                70.73      1.47     72.20     72.17
 MP2-F12                 9.22      1.37     10.59     10.60
 F12b energy             1.84      0.06      1.90      1.90

 Program statistics:

 Available memory in ccsd:                99998934
 Min. memory needed in ccsd:               4458306
 Max. memory used in ccsd:                 5958390
 Max. memory used in cckext:               6352469 (10 integral passes)



 **********************************************************************************************************************************
 DATASETS  * FILE   NREC   LENGTH (MB)   RECORD NAMES
              1      20      269.66       500      610      700      900      950      970     1000      129      960     1100   
                                          VAR    BASINP    GEOM    SYMINP    ZMAT    AOBASIS   BASIS     P2S    ABASIS      S 
                                         1400     1410     1200     1210     1080     1600     1650     1700      960(1)  1380   
                                           T        V       H0       H01     AOSYM     SMH    MOLCAS    OPER    ABASIS    JKOP   

              2       5        1.55       700     1000     2100     7360     7350   
                                         GEOM     BASIS     RHF    F12ABS    EF12   

 PROGRAMS   *        TOTAL   CCSD(T)        HF       INT
 CPU TIMES  *       124.77    111.61      4.10      8.99
 REAL TIME  *       133.17 SEC
 DISK USED  *         3.29 GB      
 SF USED    *         1.53 GB      
 GA USED    *         2.40 MB       (max)       0.00 MB       (current)
 **********************************************************************************************************************************

     CCSD(T)-F12        HF-SCF  
   -264.76228784   -263.76822593
 **********************************************************************************************************************************
 Variable memory released
