
 Primary working directories    : /scratch/kee
 Secondary working directories  : /scratch/kee
 Wavefunction directory         : /home/kee/wfu/
 Main file repository           : /scratch/kee/

 ARCHNAME  : Linux/x86_64
 FC        : /opt/intel/composer_xe_2015.0.090/bin/intel64/ifort
 FCVERSION : 15.0.0
 BLASLIB   : -L/opt/intel/mkl/lib/intel64 -lmkl_intel_ilp64 -lmkl_sequential -lmkl_core
 id        : emory

 Nodes     nprocs
 node22       3
 Number of processes for MPI-2 version of Molpro:   nprocs(total)=    4   nprocs(compute)=    3   nprocs(helper)=    1
 ga_uses_ma=false, calling ma_init with nominal heap.
 GA-space will be limited to   8.0 MW (determined by -G option)

 Using customized tuning parameters: mindgm=7; mindgv=32; mindgc=1; mindgr=1; noblas=0; mincuda=1000; minvec=7
 default implementation of scratch files=sf  

 ***,co2h2o
 memory,100,m
 basis avtz
 geomtype = xyz
 geometry = {
 6
    -264.76489694
 O     0.82869278    1.16169550    0.00000000
 O     0.82658011   -1.16233555    0.00000000
 O    -1.49123463    0.00060227    0.00000000
 H    -2.07486764    0.76119692    0.00000000
 H    -2.07459953   -0.76019965    0.00000000
 C     0.80876519   -0.00029961    0.00000000
 }
 hf
 ccsd(t)-f12
 ---

 Variables initialized (665), CPU time= 0.01 sec
 Commands  initialized (462), CPU time= 0.00 sec, 486 directives.
 Default parameters read. Elapsed time= 0.03 sec

 Checking input...
 Passed
1


                                         ***  PROGRAM SYSTEM MOLPRO  ***
                         Copyright, University College Cardiff Consultants Limited, 2008

                                    Version 2010.1 linked 9 Dec 2014 15:06:28 


 **********************************************************************************************************************************
 LABEL *   co2h2o                                                                        
 Linux-2.6.32-504.el6.x86_64/node22(x86_64) 64 bit mpp version                           DATE: 12-Dec-16          TIME: 17:37:46  
 **********************************************************************************************************************************

 Patch level:      19
 **********************************************************************************************************************************

 Variable memory set to  100000000 words,  buffer space   230000 words

 SETTING BASIS          =    AVTZ
 SETTING GEOMTYPE       =    XYZ

Geometry recognized as XYZ



 Recomputing integrals since basis changed


 Using spherical harmonics

 Library entry O      S aug-cc-pVTZ          selected for orbital group  1
 Library entry O      P aug-cc-pVTZ          selected for orbital group  1
 Library entry O      D aug-cc-pVTZ          selected for orbital group  1
 Library entry O      F aug-cc-pVTZ          selected for orbital group  1
 Library entry H      S aug-cc-pVTZ          selected for orbital group  2
 Library entry H      P aug-cc-pVTZ          selected for orbital group  2
 Library entry H      D aug-cc-pVTZ          selected for orbital group  2
 Library entry C      S aug-cc-pVTZ          selected for orbital group  3
 Library entry C      P aug-cc-pVTZ          selected for orbital group  3
 Library entry C      D aug-cc-pVTZ          selected for orbital group  3
 Library entry C      F aug-cc-pVTZ          selected for orbital group  3

1PROGRAM * SEWARD (Integral evaluation for generally contracted gaussian basis sets)     Author: Roland Lindh, 1990

 Geometry written to block  1 of record 700


 Point group  Cs  



 ATOMIC COORDINATES

 NR  ATOM    CHARGE       X              Y              Z

   1  O       8.00    1.566002401    2.195286343    0.000000000
   2  O       8.00    1.562010034   -2.196495862    0.000000000
   3  O       8.00   -2.818025048    0.001138125    0.000000000
   4  H       1.00   -3.920931599    1.438453711    0.000000000
   5  H       1.00   -3.920424944   -1.436569144    0.000000000
   6  C       6.00    1.528344714   -0.000566181    0.000000000

 Bond lengths in Bohr (Angstrom)

 1-6  2.196175405  2-6  2.196187724  3-4  1.811706088  3-5  1.811708509
     (1.162165971)     (1.162172490)     (0.958713571)     (0.958714852)

 Bond angles

  1-6-2  178.13918425   4-3-5  105.01947441

 NUCLEAR CHARGE:                   32
 NUMBER OF PRIMITIVE AOS:         322
 NUMBER OF SYMMETRY AOS:          282
 NUMBER OF CONTRACTIONS:          230   ( 152A'  +  78A"  )
 NUMBER OF CORE ORBITALS:           4   (   4A'  +   0A"  )
 NUMBER OF VALENCE ORBITALS:       18   (  14A'  +   4A"  )


 NUCLEAR REPULSION ENERGY  112.07370414


 Eigenvalues of metric

         1 0.207E-03 0.229E-03 0.273E-03 0.310E-03 0.453E-03 0.731E-03 0.824E-03 0.133E-02
         2 0.292E-02 0.346E-02 0.487E-02 0.115E-01 0.122E-01 0.235E-01 0.287E-01 0.291E-01


 Contracted 2-electron integrals neglected if value below      1.0D-11
 AO integral compression algorithm  1   Integral accuracy      1.0D-11

     796.656 MB (compressed) written to integral file ( 48.0%)

     Node minimum: 261.095 MB, node maximum: 270.270 MB


 NUMBER OF SORTED TWO-ELECTRON INTEGRALS:   59950380.     BUFFER LENGTH:  32768
 NUMBER OF SEGMENTS:   4  SEGMENT LENGTH:   15995235      RECORD LENGTH: 524288

 Memory used in sort:      16.55 MW

 SORT1 READ   207531521. AND WROTE    57498727. INTEGRALS IN    167 RECORDS. CPU TIME:     2.98 SEC, REAL TIME:     3.53 SEC
 SORT2 READ   172867069. AND WROTE   179836431. INTEGRALS IN   3093 RECORDS. CPU TIME:     1.02 SEC, REAL TIME:     1.42 SEC

 Node minimum:    59940574.  Node maximum:    59950380. integrals

 OPERATOR DM      FOR CENTER  0  COORDINATES:    0.000000    0.000000    0.000000


 **********************************************************************************************************************************
 DATASETS  * FILE   NREC   LENGTH (MB)   RECORD NAMES
              1      18        3.74       500      610      700      900      950      970     1000      129      960     1100   
                                          VAR    BASINP    GEOM    SYMINP    ZMAT    AOBASIS   BASIS     P2S    ABASIS      S 
                                         1400     1410     1200     1210     1080     1600     1650     1700   
                                           T        V       H0       H01     AOSYM     SMH    MOLCAS    OPER   

 PROGRAMS   *        TOTAL       INT
 CPU TIMES  *         8.30      8.23
 REAL TIME  *         9.46 SEC
 DISK USED  *         2.85 GB      
 GA USED    *         0.00 MB       (max)       0.00 MB       (current)
 **********************************************************************************************************************************

1PROGRAM * RHF-SCF (CLOSED SHELL)       Authors: W. Meyer, H.-J. Werner


 NUMBER OF ELECTRONS:      16+   16-
 CONVERGENCE THRESHOLDS:    1.00E-05 (Density)    1.00E-07 (Energy)
 MAX. NUMBER OF ITERATIONS:       60
 INTERPOLATION TYPE:            DIIS
 INTERPOLATION STEPS:              2 (START)      1 (STEP)
 LEVEL SHIFTS:                  0.00 (CLOSED)  0.00 (OPEN) 



 Orbital guess generated from atomic densities. Full valence occupancy:   18   4

 Molecular orbital dump at record        2100.2

 Initial alpha occupancy:  13   3
 Initial beta  occupancy:  13   3
 Wave function symmetry:    1

 ITERATION    DDIFF          GRAD             ENERGY        2-EL.EN.            DIPOLE MOMENTS         DIIS
    1      0.000D+00      0.000D+00      -263.66463762    420.817991   -1.31965   -0.00002    0.00000    0
    2      0.000D+00      0.606D-02      -263.72732811    416.085906   -1.02258    0.00002    0.00000    1
    3      0.985D-02      0.398D-02      -263.76443596    418.405721   -1.04327    0.00005    0.00000    2
    4      0.391D-02      0.414D-03      -263.76497284    418.279615   -1.03597    0.00003    0.00000    3
    5      0.505D-03      0.128D-03      -263.76503565    418.241336   -1.02947    0.00004    0.00000    4
    6      0.191D-03      0.515D-04      -263.76504399    418.262799   -1.02962    0.00003    0.00000    5
    7      0.628D-04      0.107D-04      -263.76504470    418.254664   -1.02921    0.00004    0.00000    6
    8      0.202D-04      0.243D-05      -263.76504474    418.256235   -1.02928    0.00003    0.00000    7
    9      0.500D-05      0.833D-06      -263.76504474    418.255901   -1.02927    0.00004    0.00000    0

 Final occupancy:  13   3

 !RHF STATE 1.1 Energy               -263.765044744818
 Nuclear energy                       112.07370414
 One-electron energy                 -584.96669953
 Two-electron energy                  209.12795065
 Virial quotient                       -1.00142059
 !RHF STATE 1.1 Dipole moment          -1.02927316     0.00003580     0.00000000
 Dipole moment /Debye                  -2.61598007     0.00009099     0.00000000

 Orbital energies:

         1.1          2.1          3.1          4.1          5.1          6.1          7.1          8.1          9.1         10.1
    -20.619147   -20.619100   -20.584415   -11.434495    -1.501214    -1.447623    -1.374967    -0.773756    -0.739510    -0.715243

        11.1         12.1         13.1         14.1         15.1
     -0.708244    -0.587043    -0.517516     0.023591     0.047261

         1.2          2.2          3.2          4.2          5.2
     -0.685836    -0.532420    -0.514869     0.082924     0.166273


 **********************************************************************************************************************************
 DATASETS  * FILE   NREC   LENGTH (MB)   RECORD NAMES
              1      18        3.76       500      610      700      900      950      970     1000      129      960     1100   
                                          VAR    BASINP    GEOM    SYMINP    ZMAT    AOBASIS   BASIS     P2S    ABASIS      S 
                                         1400     1410     1200     1210     1080     1600     1650     1700   
                                           T        V       H0       H01     AOSYM     SMH    MOLCAS    OPER   

              2       3        0.96       700     1000     2100   
                                         GEOM     BASIS     RHF  

 PROGRAMS   *        TOTAL        HF       INT
 CPU TIMES  *        12.10      3.80      8.23
 REAL TIME  *        13.61 SEC
 DISK USED  *         2.88 GB      
 SF USED    *         0.12 MB      
 GA USED    *         0.00 MB       (max)       0.00 MB       (current)
 **********************************************************************************************************************************


1PROGRAM * CCSD (Closed-shell coupled cluster)     Authors: C. Hampel, H.-J. Werner, 1991, M. Deegan, P.J. Knowles, 1992

                                  CCSD-F12 implementation by  H.-J. Werner, 2007

                   Density fitting integral evaluation by F.R. Manby, 2003,2007, G. Knizia, 2010

 Basis set CC-PVTZ/JKFIT generated.      Number of basis functions:   376 
 Basis set AUG-CC-PVTZ/MP2FIT generated. Number of basis functions:   516 

 Convergence thresholds:  THRVAR = 1.00D-08  THRDEN = 1.00D-06

 CCSD(T)     terms to be evaluated (factor= 1.000)


 Number of core orbitals:           4 (   4   0 )
 Number of closed-shell orbitals:  12 (   9   3 )
 Number of external orbitals:     214 ( 139  75 )

 Molecular orbitals read from record     2100.2  Type=RHF/CANONICAL (state 1.1)

 MP2-F12 correlation treatment (H.-J. Werner, 2006)
 --------------------------------------------------

 Using MP2-F12 with ansatz 3C(FIX)

 Using projected zeroth-order Hamiltonian (+Z)

 FOCKRIB=T FOCKRIC=T FOCKRIP=T CABSP=T CABSA=T CABSK=T CABSF=T GBC=F EBC=F DMAT=T NOFIK=T NOPAO=1 SOLVE=-1  USEPAO=0
 EXCH_A= T EXCH_B= F EXCH_C= F EXCH_P= F
 
 Geminal basis:    OPTFULL  GEM_TYPE=SLATER  BETA=1.0  NGEM=6

 Optimizing Gaussian exponents for each gem_beta

 Geminal optimization for beta= 1.0000
 Weight function:   m=0, omega= 1.4646

 Augmented Hessian optimization of geminal fit. Trust ratio= 0.40000
 Convergence reached after   2 iterations. Final gradient= 8.24D-16, Step= 4.32D-06, Delta= 1.28D-09
 
 Alpha:                 0.19532     0.81920     2.85917     9.50073    35.69989   197.79328
 Coeff:                 0.27070     0.30552     0.18297     0.10986     0.06810     0.04224
 

 Symmetry turned off. Reference energy:       -263.765044744819

 All pairs explicitly correlated. Number of r12-pairs:           78
 
 AO(A)-basis ORBITAL           loaded. Number of functions:     230
 RI(R)-basis CC-PVTZ/JKFIT     loaded. Number of functions:     376
 DF-basis CC-PVTZ/JKFIT        loaded. Number of functions:     376

 Screening thresholds:   THRAO=  1.00D-10  THRMO=  1.00D-09  THRPROD=  1.00D-09
                         THRSW=  1.00D-05  THROV=  1.00D-12  THRF12=   1.00D-08

 CPU time for Fock operators                      0.87 sec
 
 Construction of ABS:
 Smallest eigenvalue of S          2.33E-04  (threshold= 1.00E-08)
 Ratio eigmin/eigmax               1.66E-06  (threshold= 1.00E-09)
 Smallest eigenvalue of S kept     2.33E-04  (threshold= 2.33E-04, 0 functions deleted, 376 kept)
 
 Construction of CABS:
 Smallest eigenvalue of S          2.22E-08  (threshold= 1.00E-08)
 Ratio eigmin/eigmax               2.22E-08  (threshold= 1.00E-09)
 Smallest eigenvalue of S kept     2.22E-08  (threshold= 2.22E-08, 0 functions deleted, 376 kept)
 
 CPU time for CABS singles                        0.15 sec

 CABS-singles contribution of  -0.01591149 patched into reference energy.
 New reference energy        -263.78095624
 
 AO(A)-basis ORBITAL           loaded. Number of functions:     230
 RI(R)-basis CC-PVTZ/JKFIT     loaded. Number of functions:     376
 DF-basis AUG-CC-PVTZ/MP2FIT   loaded. Number of functions:     516

 Screening thresholds:   THRAO=  1.00D-10  THRMO=  1.00D-09  THRPROD=  1.00D-09
                         THRSW=  1.00D-05  THROV=  1.00D-12  THRF12=   1.00D-08

 CPU time for 3-index integral evaluation         2.77 sec
 CPU time for first  half transformation          0.19 sec (15495.7 MFLOP/sec)
 CPU time for second half transformation          0.03 sec ( 3456.3 MFLOP/sec)
 CPU time for sorting                             0.10 sec
 CPU time for fitting                             0.05 sec (27861.0 MFLOP/sec)
 CPU time for tilde quantities                    0.05 sec (36977.6 MFLOP/sec)
 CPU time for assembly                            0.72 sec (32871.1 MFLOP/sec)
 CPU time for tranop_f12                          0.77 sec (38638.9 MFLOP/sec)
 CPU time for f12 integrals (total)               6.48 sec
 F12-matrices built in  3 passes.
 F12-matrices built in  3 passes.
 F12-matrices built in  3 passes.
 F12-matrices built in  3 passes.
 FC-matrix built in  3 passes.
 CPU time for f12 matrices (total)                0.43 sec

 Diagonal F12 approximation with fixed coefficients:  TSING= 0.500,  TTRIP= 0.250 (scaled by -1/beta)

 DF-MP2-F12 energy corrections:
 ------------------------------
 Approx.                                    Singlet             Triplet             Total
 DF-MP2-F12/3*C(DX,FIX)                -0.097467819720     -0.017111904868     -0.114579724588
 DF-MP2-F12/3*C(FIX)                   -0.079839209199     -0.013598420269     -0.093437629469
 DF-MP2-F12/3C(FIX)                    -0.080215536972     -0.013647821059     -0.093863358031

 DF-MP2-F12 correlation energies:
 --------------------------------
 Approx.                                    Singlet             Triplet             Ecorr            Total Energy
 DF-MP2                                -0.537940403082     -0.346499879180     -0.884440282262   -264.665396520572
 DF-MP2-F12/3*C(DX,FIX)                -0.635408222802     -0.363611784048     -0.999020006850   -264.779976245160
 DF-MP2-F12/3*C(FIX)                   -0.617779612281     -0.360098299449     -0.977877911731   -264.758834150041
 DF-MP2-F12/3C(FIX)                    -0.618155940054     -0.360147700239     -0.978303640293   -264.759259878603

 SCS-DF-MP2 energies (F_SING= 1.20000  F_TRIP= 0.62222  F_PARALLEL= 0.33333):
 ----------------------------------------------------------------------------
 SCS-DF-MP2                            -0.861128408521   -264.642084646831
 SCS-DF-MP2-F12/3*C(DX,FIX)            -0.988737199659   -264.769693437969
 SCS-DF-MP2-F12/3*C(FIX)               -0.965396698839   -264.746352937149
 SCS-DF-MP2-F12/3C(FIX)                -0.965879030436   -264.746835268746

 Symmetry restored.
 Symmetry transformation completed.

 Number of N-1 electron functions:              12
 Number of N-2 electron functions:              78
 Number of singly external CSFs:              1476
 Number of doubly external CSFs:           1686804
 Total number of CSFs:                     1688281

 Pair and operator lists are different

 Length of J-op  integral file:             466.42 MB
 Length of K-op  integral file:             526.62 MB
 Length of 3-ext integral record:             0.00 MB

 Memory could be reduced to 76.61 Mwords without degradation in triples

 Integral transformation finished. Total CPU:   3.57 sec, npass=  1  Memory used:  24.61 MW

 Reference energy:                   -263.78095624

 Adding F12 terms to K(Cij), methodcc=6,  factor=1.0

 ITER.      SQ.NORM     CORR.ENERGY   TOTAL ENERGY   ENERGY CHANGE        DEN1      VAR(S)    VAR(P)  DIIS     TIME
   1      1.20165033    -0.86610716  -264.64706340     0.01834287     0.04671771  0.72D-02  0.54D-02  1  1    14.23
   2      1.21587970    -0.86199567  -264.64295191     0.00411149    -0.02007913  0.92D-04  0.58D-03  2  2    16.76
   3      1.22124740    -0.86212853  -264.64308476    -0.00013286    -0.00232853  0.13D-03  0.31D-04  3  3    19.27
   4      1.22407679    -0.86199570  -264.64295194     0.00013282    -0.00141171  0.83D-05  0.40D-05  4  4    21.75
   5      1.22512795    -0.86195950  -264.64291574     0.00003621    -0.00036553  0.72D-06  0.28D-06  5  5    24.28
   6      1.22529877    -0.86193199  -264.64288823     0.00002751    -0.00000746  0.54D-07  0.28D-07  6  6    26.78
   7      1.22533387    -0.86192898  -264.64288522     0.00000301    -0.00000678  0.64D-08  0.41D-08  6  2    29.29
   8      1.22533516    -0.86192862  -264.64288485     0.00000037     0.00000197  0.54D-09  0.39D-09  6  1    31.84
   9      1.22533566    -0.86192873  -264.64288497    -0.00000012     0.00000083  0.71D-10  0.32D-10  6  4    34.36

 Norm of t1 vector:      0.10717087      S-energy:     0.00000009      T1 diagnostic:  0.01546878
                                                                       D1 diagnostic:  0.04717695

 Adding energy correction from Wij-K(Fij), methodcc=6  factor=1.0
 
  CCSD correlation energy              -0.861928733999
  MP2-F12 correction (uncoupled)       -0.092673708113
  C*T doubles correction               -0.001483594456
  f12b correction                       0.015433822516


 Total CPU time for triples:     66.19 sec


 RESULTS
 =======

  Reference energy                   -263.765044744818
  F12 singles correction               -0.015911493491

 F12 singles corrections added to reference energy

  New reference energy               -263.780956238310

  F12a singlet correction              -0.080406797982
  F12a triplet correction              -0.013750504587
  F12a total correction                -0.094157302569

 F12a corrections for ansatz F12/3C(FIX) added to CCSD energy
 
  CCSD-F12a singlet pair energy        -0.641531039266
  CCSD-F12a triplet pair energy        -0.314555088583
  CCSD-F12a correlation energy         -0.956086036569

  Triples (T) contribution             -0.038177732311
  Total correlation energy             -0.994263768880

  CCSD-F12a total energy             -264.737042274878
  CCSD[T]-F12a energy                -264.777766944035
  CCSD-T-F12a energy                 -264.774297947737
 !CCSD(T)-F12a total energy          -264.775220007189

 F12b corrections for ansatz F12/3C(FIX) added to CCSD(T)-F12a energy

  CCSD-F12b singlet pair energy        -0.627344630832
  CCSD-F12b triplet pair energy        -0.313307674501
  CCSD-F12b correlation energy         -0.940652214053

  Triples (T) contribution             -0.038177732311
  Total correlation energy             -0.978829946364

  CCSD-F12b total energy             -264.721608452362
  CCSD[T]-F12b energy                -264.762333121519
  CCSD-T-F12b energy                 -264.758864125221
 !CCSD(T)-F12b total energy          -264.759786184674

 Timing summary (sec):

 STEP                 CPU(USER)    SYS     CPU(TOT)    WALL
 Transformation          3.60      0.49      4.09      4.09
 CCSD iterations        22.49      1.49     23.98     23.95
 Triples                66.19      1.40     67.59     67.56
 MP2-F12                 8.28      1.02      9.30      9.30
 F12b energy             1.64      0.05      1.69      1.69

 Program statistics:

 Available memory in ccsd:                99998934
 Min. memory needed in ccsd:               4458306
 Max. memory used in ccsd:                 5958390
 Max. memory used in cckext:               6352469 (10 integral passes)



 **********************************************************************************************************************************
 DATASETS  * FILE   NREC   LENGTH (MB)   RECORD NAMES
              1      20      269.66       500      610      700      900      950      970     1000      129      960     1100   
                                          VAR    BASINP    GEOM    SYMINP    ZMAT    AOBASIS   BASIS     P2S    ABASIS      S 
                                         1400     1410     1200     1210     1080     1600     1650     1700      960(1)  1380   
                                           T        V       H0       H01     AOSYM     SMH    MOLCAS    OPER    ABASIS    JKOP   

              2       5        1.55       700     1000     2100     7360     7350   
                                         GEOM     BASIS     RHF    F12ABS    EF12   

 PROGRAMS   *        TOTAL   CCSD(T)        HF       INT
 CPU TIMES  *       114.32    102.22      3.80      8.23
 REAL TIME  *       120.52 SEC
 DISK USED  *         3.32 GB      
 SF USED    *         1.53 GB      
 GA USED    *         2.40 MB       (max)       0.00 MB       (current)
 **********************************************************************************************************************************

     CCSD(T)-F12        HF-SCF  
   -264.75978618   -263.76504474
 **********************************************************************************************************************************
 Variable memory released
