
 Primary working directories    : /scratch/kee
 Secondary working directories  : /scratch/kee
 Wavefunction directory         : /home/kee/wfu/
 Main file repository           : /scratch/kee/

 ARCHNAME  : Linux/x86_64
 FC        : /opt/intel/composer_xe_2015.0.090/bin/intel64/ifort
 FCVERSION : 15.0.0
 BLASLIB   : -L/opt/intel/mkl/lib/intel64 -lmkl_intel_ilp64 -lmkl_sequential -lmkl_core
 id        : emory

 Nodes     nprocs
 node22       3
 Number of processes for MPI-2 version of Molpro:   nprocs(total)=    4   nprocs(compute)=    3   nprocs(helper)=    1
 ga_uses_ma=false, calling ma_init with nominal heap.
 GA-space will be limited to   8.0 MW (determined by -G option)

 Using customized tuning parameters: mindgm=7; mindgv=32; mindgc=1; mindgr=1; noblas=0; mincuda=1000; minvec=7
 default implementation of scratch files=sf  

 ***,co2h2o
 memory,100,m
 basis avtz
 geomtype = xyz
 geometry = {
 6
    -264.76489694
 O     0.82869278    1.16169550    0.00000000
 O     0.82658011   -1.16233555    0.00000000
 O    -2.79123453    0.00111202    0.00000000
 H    -3.37486754    0.76170667    0.00000000
 H    -3.37459943   -0.75968990    0.00000000
 C     0.80876519   -0.00029961    0.00000000
 }
 hf
 ccsd(t)-f12
 ---

 Variables initialized (665), CPU time= 0.00 sec
 Commands  initialized (462), CPU time= 0.00 sec, 486 directives.
 Default parameters read. Elapsed time= 0.03 sec

 Checking input...
 Passed
1


                                         ***  PROGRAM SYSTEM MOLPRO  ***
                         Copyright, University College Cardiff Consultants Limited, 2008

                                    Version 2010.1 linked 9 Dec 2014 15:06:28 


 **********************************************************************************************************************************
 LABEL *   co2h2o                                                                        
 Linux-2.6.32-504.el6.x86_64/node22(x86_64) 64 bit mpp version                           DATE: 12-Dec-16          TIME: 18:37:55  
 **********************************************************************************************************************************

 Patch level:      19
 **********************************************************************************************************************************

 Variable memory set to  100000000 words,  buffer space   230000 words

 SETTING BASIS          =    AVTZ
 SETTING GEOMTYPE       =    XYZ

Geometry recognized as XYZ



 Recomputing integrals since basis changed


 Using spherical harmonics

 Library entry O      S aug-cc-pVTZ          selected for orbital group  1
 Library entry O      P aug-cc-pVTZ          selected for orbital group  1
 Library entry O      D aug-cc-pVTZ          selected for orbital group  1
 Library entry O      F aug-cc-pVTZ          selected for orbital group  1
 Library entry H      S aug-cc-pVTZ          selected for orbital group  2
 Library entry H      P aug-cc-pVTZ          selected for orbital group  2
 Library entry H      D aug-cc-pVTZ          selected for orbital group  2
 Library entry C      S aug-cc-pVTZ          selected for orbital group  3
 Library entry C      P aug-cc-pVTZ          selected for orbital group  3
 Library entry C      D aug-cc-pVTZ          selected for orbital group  3
 Library entry C      F aug-cc-pVTZ          selected for orbital group  3

1PROGRAM * SEWARD (Integral evaluation for generally contracted gaussian basis sets)     Author: Roland Lindh, 1990

 Geometry written to block  1 of record 700


 Point group  Cs  



 ATOMIC COORDINATES

 NR  ATOM    CHARGE       X              Y              Z

   1  O       8.00    1.566002401    2.195286343    0.000000000
   2  O       8.00    1.562010034   -2.196495862    0.000000000
   3  O       8.00   -5.274668830    0.002101413    0.000000000
   4  H       1.00   -6.377575380    1.439416999    0.000000000
   5  H       1.00   -6.377068726   -1.435605856    0.000000000
   6  C       6.00    1.528344714   -0.000566181    0.000000000

 Bond lengths in Bohr (Angstrom)

 1-6  2.196175405  2-6  2.196187724  3-4  1.811706088  3-5  1.811708509
     (1.162165971)     (1.162172490)     (0.958713571)     (0.958714852)

 Bond angles

  1-6-2  178.13918425   4-3-5  105.01947441

 NUCLEAR CHARGE:                   32
 NUMBER OF PRIMITIVE AOS:         322
 NUMBER OF SYMMETRY AOS:          282
 NUMBER OF CONTRACTIONS:          230   ( 152A'  +  78A"  )
 NUMBER OF CORE ORBITALS:           4   (   4A'  +   0A"  )
 NUMBER OF VALENCE ORBITALS:       18   (  14A'  +   4A"  )


 NUCLEAR REPULSION ENERGY   97.67194767


 Eigenvalues of metric

         1 0.311E-03 0.339E-03 0.363E-03 0.365E-03 0.885E-03 0.889E-03 0.130E-02 0.161E-02
         2 0.314E-02 0.347E-02 0.555E-02 0.124E-01 0.134E-01 0.276E-01 0.295E-01 0.308E-01


 Contracted 2-electron integrals neglected if value below      1.0D-11
 AO integral compression algorithm  1   Integral accuracy      1.0D-11

     629.146 MB (compressed) written to integral file ( 37.9%)

     Node minimum: 198.967 MB, node maximum: 218.628 MB


 NUMBER OF SORTED TWO-ELECTRON INTEGRALS:   59950380.     BUFFER LENGTH:  32768
 NUMBER OF SEGMENTS:   4  SEGMENT LENGTH:   15995235      RECORD LENGTH: 524288

 Memory used in sort:      16.55 MW

 SORT1 READ   207531521. AND WROTE    48889634. INTEGRALS IN    142 RECORDS. CPU TIME:     3.16 SEC, REAL TIME:     3.69 SEC
 SORT2 READ   147344762. AND WROTE   179836431. INTEGRALS IN   2277 RECORDS. CPU TIME:     1.09 SEC, REAL TIME:     1.51 SEC

 Node minimum:    59940574.  Node maximum:    59950380. integrals

 OPERATOR DM      FOR CENTER  0  COORDINATES:    0.000000    0.000000    0.000000


 **********************************************************************************************************************************
 DATASETS  * FILE   NREC   LENGTH (MB)   RECORD NAMES
              1      18        3.74       500      610      700      900      950      970     1000      129      960     1100   
                                          VAR    BASINP    GEOM    SYMINP    ZMAT    AOBASIS   BASIS     P2S    ABASIS      S 
                                         1400     1410     1200     1210     1080     1600     1650     1700   
                                           T        V       H0       H01     AOSYM     SMH    MOLCAS    OPER   

 PROGRAMS   *        TOTAL       INT
 CPU TIMES  *         8.60      8.52
 REAL TIME  *         9.77 SEC
 DISK USED  *         2.39 GB      
 GA USED    *         0.00 MB       (max)       0.00 MB       (current)
 **********************************************************************************************************************************

1PROGRAM * RHF-SCF (CLOSED SHELL)       Authors: W. Meyer, H.-J. Werner


 NUMBER OF ELECTRONS:      16+   16-
 CONVERGENCE THRESHOLDS:    1.00E-05 (Density)    1.00E-07 (Energy)
 MAX. NUMBER OF ITERATIONS:       60
 INTERPOLATION TYPE:            DIIS
 INTERPOLATION STEPS:              2 (START)      1 (STEP)
 LEVEL SHIFTS:                  0.00 (CLOSED)  0.00 (OPEN) 



 Orbital guess generated from atomic densities. Full valence occupancy:   18   4

 Molecular orbital dump at record        2100.2

 Initial alpha occupancy:  13   3
 Initial beta  occupancy:  13   3
 Wave function symmetry:    1

 ITERATION    DDIFF          GRAD             ENERGY        2-EL.EN.            DIPOLE MOMENTS         DIIS
    1      0.000D+00      0.000D+00      -263.66503466    391.452797   -1.18799   -0.00012    0.00000    0
    2      0.000D+00      0.623D-02      -263.72942630    386.724822   -0.77366   -0.00007    0.00000    1
    3      0.100D-01      0.420D-02      -263.77105169    389.274131   -0.87011   -0.00006    0.00000    2
    4      0.409D-02      0.403D-03      -263.77154762    389.074542   -0.87238   -0.00007    0.00000    3
    5      0.487D-03      0.118D-03      -263.77160581    389.069618   -0.86776   -0.00007    0.00000    4
    6      0.182D-03      0.480D-04      -263.77161318    389.085628   -0.86857   -0.00007    0.00000    5
    7      0.611D-04      0.114D-04      -263.77161390    389.077059   -0.86817   -0.00007    0.00000    6
    8      0.198D-04      0.253D-05      -263.77161395    389.078397   -0.86819   -0.00007    0.00000    7
    9      0.537D-05      0.847D-06      -263.77161395    389.078178   -0.86816   -0.00007    0.00000    0

 Final occupancy:  13   3

 !RHF STATE 1.1 Energy               -263.771613953748
 Nuclear energy                        97.67194767
 One-electron energy                 -555.98265065
 Two-electron energy                  194.53908902
 Virial quotient                       -1.00184863
 !RHF STATE 1.1 Dipole moment          -0.86816128    -0.00006779     0.00000000
 Dipole moment /Debye                  -2.20650134    -0.00017229     0.00000000

 Orbital energies:

         1.1          2.1          3.1          4.1          5.1          6.1          7.1          8.1          9.1         10.1
    -20.639066   -20.639021   -20.573408   -11.448479    -1.516753    -1.463794    -1.358738    -0.787712    -0.730151    -0.724062

        11.1         12.1         13.1         14.1         15.1
     -0.700519    -0.591053    -0.530839     0.026927     0.047584

         1.2          2.2          3.2          4.2          5.2
     -0.701050    -0.530997    -0.516594     0.081798     0.166385


 **********************************************************************************************************************************
 DATASETS  * FILE   NREC   LENGTH (MB)   RECORD NAMES
              1      18        3.76       500      610      700      900      950      970     1000      129      960     1100   
                                          VAR    BASINP    GEOM    SYMINP    ZMAT    AOBASIS   BASIS     P2S    ABASIS      S 
                                         1400     1410     1200     1210     1080     1600     1650     1700   
                                           T        V       H0       H01     AOSYM     SMH    MOLCAS    OPER   

              2       3        0.96       700     1000     2100   
                                         GEOM     BASIS     RHF  

 PROGRAMS   *        TOTAL        HF       INT
 CPU TIMES  *        12.95      4.36      8.52
 REAL TIME  *        14.51 SEC
 DISK USED  *         2.41 GB      
 SF USED    *         0.12 MB      
 GA USED    *         0.00 MB       (max)       0.00 MB       (current)
 **********************************************************************************************************************************


1PROGRAM * CCSD (Closed-shell coupled cluster)     Authors: C. Hampel, H.-J. Werner, 1991, M. Deegan, P.J. Knowles, 1992

                                  CCSD-F12 implementation by  H.-J. Werner, 2007

                   Density fitting integral evaluation by F.R. Manby, 2003,2007, G. Knizia, 2010

 Basis set CC-PVTZ/JKFIT generated.      Number of basis functions:   376 
 Basis set AUG-CC-PVTZ/MP2FIT generated. Number of basis functions:   516 

 Convergence thresholds:  THRVAR = 1.00D-08  THRDEN = 1.00D-06

 CCSD(T)     terms to be evaluated (factor= 1.000)


 Number of core orbitals:           4 (   4   0 )
 Number of closed-shell orbitals:  12 (   9   3 )
 Number of external orbitals:     214 ( 139  75 )

 Molecular orbitals read from record     2100.2  Type=RHF/CANONICAL (state 1.1)

 MP2-F12 correlation treatment (H.-J. Werner, 2006)
 --------------------------------------------------

 Using MP2-F12 with ansatz 3C(FIX)

 Using projected zeroth-order Hamiltonian (+Z)

 FOCKRIB=T FOCKRIC=T FOCKRIP=T CABSP=T CABSA=T CABSK=T CABSF=T GBC=F EBC=F DMAT=T NOFIK=T NOPAO=1 SOLVE=-1  USEPAO=0
 EXCH_A= T EXCH_B= F EXCH_C= F EXCH_P= F
 
 Geminal basis:    OPTFULL  GEM_TYPE=SLATER  BETA=1.0  NGEM=6

 Optimizing Gaussian exponents for each gem_beta

 Geminal optimization for beta= 1.0000
 Weight function:   m=0, omega= 1.4646

 Augmented Hessian optimization of geminal fit. Trust ratio= 0.40000
 Convergence reached after   2 iterations. Final gradient= 8.24D-16, Step= 4.32D-06, Delta= 1.28D-09
 
 Alpha:                 0.19532     0.81920     2.85917     9.50073    35.69989   197.79328
 Coeff:                 0.27070     0.30552     0.18297     0.10986     0.06810     0.04224
 

 Symmetry turned off. Reference energy:       -263.771613953747

 All pairs explicitly correlated. Number of r12-pairs:           78
 
 AO(A)-basis ORBITAL           loaded. Number of functions:     230
 RI(R)-basis CC-PVTZ/JKFIT     loaded. Number of functions:     376
 DF-basis CC-PVTZ/JKFIT        loaded. Number of functions:     376

 Screening thresholds:   THRAO=  1.00D-10  THRMO=  1.00D-09  THRPROD=  1.00D-09
                         THRSW=  1.00D-05  THROV=  1.00D-12  THRF12=   1.00D-08

 CPU time for Fock operators                      0.92 sec
 
 Construction of ABS:
 Smallest eigenvalue of S          2.57E-04  (threshold= 1.00E-08)
 Ratio eigmin/eigmax               1.83E-06  (threshold= 1.00E-09)
 Smallest eigenvalue of S kept     2.57E-04  (threshold= 2.57E-04, 0 functions deleted, 376 kept)
 
 Construction of CABS:
 Smallest eigenvalue of S          2.28E-08  (threshold= 1.00E-08)
 Ratio eigmin/eigmax               2.28E-08  (threshold= 1.00E-09)
 Smallest eigenvalue of S kept     2.28E-08  (threshold= 2.28E-08, 0 functions deleted, 376 kept)
 
 CPU time for CABS singles                        0.14 sec

 CABS-singles contribution of  -0.01591792 patched into reference energy.
 New reference energy        -263.78753187
 
 AO(A)-basis ORBITAL           loaded. Number of functions:     230
 RI(R)-basis CC-PVTZ/JKFIT     loaded. Number of functions:     376
 DF-basis AUG-CC-PVTZ/MP2FIT   loaded. Number of functions:     516

 Screening thresholds:   THRAO=  1.00D-10  THRMO=  1.00D-09  THRPROD=  1.00D-09
                         THRSW=  1.00D-05  THROV=  1.00D-12  THRF12=   1.00D-08

 CPU time for 3-index integral evaluation         2.74 sec
 CPU time for first  half transformation          0.21 sec (14266.1 MFLOP/sec)
 CPU time for second half transformation          0.02 sec ( 4800.2 MFLOP/sec)
 CPU time for sorting                             0.14 sec
 CPU time for fitting                             0.04 sec (34826.3 MFLOP/sec)
 CPU time for tilde quantities                    0.08 sec (23111.0 MFLOP/sec)
 CPU time for assembly                            0.75 sec (31484.5 MFLOP/sec)
 CPU time for tranop_f12                          0.83 sec (36372.8 MFLOP/sec)
 CPU time for f12 integrals (total)               6.77 sec
 F12-matrices built in  3 passes.
 F12-matrices built in  3 passes.
 F12-matrices built in  3 passes.
 F12-matrices built in  3 passes.
 FC-matrix built in  3 passes.
 CPU time for f12 matrices (total)                0.45 sec

 Diagonal F12 approximation with fixed coefficients:  TSING= 0.500,  TTRIP= 0.250 (scaled by -1/beta)

 DF-MP2-F12 energy corrections:
 ------------------------------
 Approx.                                    Singlet             Triplet             Total
 DF-MP2-F12/3*C(DX,FIX)                -0.097384331468     -0.016934485539     -0.114318817006
 DF-MP2-F12/3*C(FIX)                   -0.079818755616     -0.013404980222     -0.093223735838
 DF-MP2-F12/3C(FIX)                    -0.080181817070     -0.013431889986     -0.093613707056

 DF-MP2-F12 correlation energies:
 --------------------------------
 Approx.                                    Singlet             Triplet             Ecorr            Total Energy
 DF-MP2                                -0.537689317079     -0.343336054326     -0.881025371405   -264.668557242706
 DF-MP2-F12/3*C(DX,FIX)                -0.635073648547     -0.360270539865     -0.995344188411   -264.782876059712
 DF-MP2-F12/3*C(FIX)                   -0.617508072696     -0.356741034548     -0.974249107243   -264.761780978544
 DF-MP2-F12/3C(FIX)                    -0.617871134149     -0.356767944312     -0.974639078461   -264.762170949761

 SCS-DF-MP2 energies (F_SING= 1.20000  F_TRIP= 0.62222  F_PARALLEL= 0.33333):
 ----------------------------------------------------------------------------
 SCS-DF-MP2                            -0.858858503187   -264.646390374487
 SCS-DF-MP2-F12/3*C(DX,FIX)            -0.986256714172   -264.773788585472
 SCS-DF-MP2-F12/3*C(FIX)               -0.962981886509   -264.750513757809
 SCS-DF-MP2-F12/3C(FIX)                -0.963434304106   -264.750966175407

 Symmetry restored.
 Symmetry transformation completed.

 Number of N-1 electron functions:              12
 Number of N-2 electron functions:              78
 Number of singly external CSFs:              1476
 Number of doubly external CSFs:           1686804
 Total number of CSFs:                     1688281

 Pair and operator lists are different

 Length of J-op  integral file:             466.42 MB
 Length of K-op  integral file:             526.62 MB
 Length of 3-ext integral record:             0.00 MB

 Memory could be reduced to 76.61 Mwords without degradation in triples

 Integral transformation finished. Total CPU:   4.47 sec, npass=  1  Memory used:  24.61 MW

 Reference energy:                   -263.78753187

 Adding F12 terms to K(Cij), methodcc=6,  factor=1.0

 ITER.      SQ.NORM     CORR.ENERGY   TOTAL ENERGY   ENERGY CHANGE        DEN1      VAR(S)    VAR(P)  DIIS     TIME
   1      1.20210480    -0.86299388  -264.65052575     0.01804704     0.04660707  0.72D-02  0.55D-02  1  1    15.95
   2      1.21640063    -0.85879989  -264.64633177     0.00419399    -0.02011945  0.87D-04  0.59D-03  2  2    19.11
   3      1.22176683    -0.85890316  -264.64643503    -0.00010326    -0.00236588  0.13D-03  0.32D-04  3  3    22.06
   4      1.22457246    -0.85877569  -264.64630756     0.00012747    -0.00141195  0.76D-05  0.41D-05  4  4    25.06
   5      1.22560211    -0.85873822  -264.64627009     0.00003747    -0.00036550  0.56D-06  0.28D-06  5  5    28.05
   6      1.22576407    -0.85871134  -264.64624321     0.00002688    -0.00000799  0.40D-07  0.24D-07  6  6    31.06
   7      1.22579352    -0.85870891  -264.64624078     0.00000243    -0.00000622  0.27D-08  0.40D-08  6  4    34.24
   8      1.22579389    -0.85870840  -264.64624027     0.00000051     0.00000191  0.40D-09  0.27D-09  6  1    37.76
   9      1.22579449    -0.85870847  -264.64624034    -0.00000007     0.00000057  0.28D-10  0.23D-10  6  2    41.27

 Norm of t1 vector:      0.10603831      S-energy:    -0.00000003      T1 diagnostic:  0.01530531
                                                                       D1 diagnostic:  0.04515579

 Adding energy correction from Wij-K(Fij), methodcc=6  factor=1.0
 
  CCSD correlation energy              -0.858708468562
  MP2-F12 correction (uncoupled)       -0.092457641631
  C*T doubles correction               -0.001471579870
  f12b correction                       0.015405295996


 Total CPU time for triples:     90.19 sec


 RESULTS
 =======

  Reference energy                   -263.771613953748
  F12 singles correction               -0.015917917553

 F12 singles corrections added to reference energy

  New reference energy               -263.787531871301

  F12a singlet correction              -0.080380560045
  F12a triplet correction              -0.013548661456
  F12a total correction                -0.093929221501

 F12a corrections for ansatz F12/3C(FIX) added to CCSD energy
 
  CCSD-F12a singlet pair energy        -0.641774597981
  CCSD-F12a triplet pair energy        -0.310863061610
  CCSD-F12a correlation energy         -0.952637690063

  Triples (T) contribution             -0.037689076535
  Total correlation energy             -0.990326766598

  CCSD-F12a total energy             -264.740169561364
  CCSD[T]-F12a energy                -264.780397646900
  CCSD-T-F12a energy                 -264.776924785331
 !CCSD(T)-F12a total energy          -264.777858637899

 F12b corrections for ansatz F12/3C(FIX) added to CCSD(T)-F12a energy

  CCSD-F12b singlet pair energy        -0.627594073157
  CCSD-F12b triplet pair energy        -0.309638290437
  CCSD-F12b correlation energy         -0.937232394067

  Triples (T) contribution             -0.037689076535
  Total correlation energy             -0.974921470602

  CCSD-F12b total energy             -264.724764265368
  CCSD[T]-F12b energy                -264.764992350904
  CCSD-T-F12b energy                 -264.761519489335
 !CCSD(T)-F12b total energy          -264.762453341903

 Timing summary (sec):

 STEP                 CPU(USER)    SYS     CPU(TOT)    WALL
 Transformation          4.50      0.55      5.05      5.05
 CCSD iterations        28.12      1.88     30.00     30.04
 Triples                90.19      1.64     91.83     91.79
 MP2-F12                 8.66      1.10      9.76      9.76
 F12b energy             2.33      0.07      2.40      2.40

 Program statistics:

 Available memory in ccsd:                99998934
 Min. memory needed in ccsd:               4458306
 Max. memory used in ccsd:                 5958390
 Max. memory used in cckext:               6352469 (10 integral passes)



 **********************************************************************************************************************************
 DATASETS  * FILE   NREC   LENGTH (MB)   RECORD NAMES
              1      20      269.66       500      610      700      900      950      970     1000      129      960     1100   
                                          VAR    BASINP    GEOM    SYMINP    ZMAT    AOBASIS   BASIS     P2S    ABASIS      S 
                                         1400     1410     1200     1210     1080     1600     1650     1700      960(1)  1380   
                                           T        V       H0       H01     AOSYM     SMH    MOLCAS    OPER    ABASIS    JKOP   

              2       5        1.55       700     1000     2100     7360     7350   
                                         GEOM     BASIS     RHF    F12ABS    EF12   

 PROGRAMS   *        TOTAL   CCSD(T)        HF       INT
 CPU TIMES  *       146.92    133.97      4.36      8.52
 REAL TIME  *       153.89 SEC
 DISK USED  *         2.85 GB      
 SF USED    *         1.53 GB      
 GA USED    *         2.40 MB       (max)       0.00 MB       (current)
 **********************************************************************************************************************************

     CCSD(T)-F12        HF-SCF  
   -264.76245334   -263.77161395
 **********************************************************************************************************************************
 Variable memory released
