
 Primary working directories    : /scratch/kee
 Secondary working directories  : /scratch/kee
 Wavefunction directory         : /home/kee/wfu/
 Main file repository           : /scratch/kee/

 ARCHNAME  : Linux/x86_64
 FC        : /opt/intel/composer_xe_2015.0.090/bin/intel64/ifort
 FCVERSION : 15.0.0
 BLASLIB   : -L/opt/intel/mkl/lib/intel64 -lmkl_intel_ilp64 -lmkl_sequential -lmkl_core
 id        : emory

 Nodes     nprocs
 node22       3
 Number of processes for MPI-2 version of Molpro:   nprocs(total)=    4   nprocs(compute)=    3   nprocs(helper)=    1
 ga_uses_ma=false, calling ma_init with nominal heap.
 GA-space will be limited to   8.0 MW (determined by -G option)

 Using customized tuning parameters: mindgm=7; mindgv=32; mindgc=1; mindgr=1; noblas=0; mincuda=1000; minvec=7
 default implementation of scratch files=sf  

 ***,co2h2o
 memory,100,m
 basis avtz
 geomtype = xyz
 geometry = {
 6
    -264.76489694
 O     0.82869278    1.16169550    0.00000000
 O     0.82658011   -1.16233555    0.00000000
 O    -1.64123462    0.00066108    0.00000000
 H    -2.22486763    0.76125573    0.00000000
 H    -2.22459952   -0.76014084    0.00000000
 C     0.80876519   -0.00029961    0.00000000
 }
 hf
 ccsd(t)-f12
 ---

 Variables initialized (665), CPU time= 0.01 sec
 Commands  initialized (462), CPU time= 0.00 sec, 486 directives.
 Default parameters read. Elapsed time= 0.03 sec

 Checking input...
 Passed
1


                                         ***  PROGRAM SYSTEM MOLPRO  ***
                         Copyright, University College Cardiff Consultants Limited, 2008

                                    Version 2010.1 linked 9 Dec 2014 15:06:28 


 **********************************************************************************************************************************
 LABEL *   co2h2o                                                                        
 Linux-2.6.32-504.el6.x86_64/node22(x86_64) 64 bit mpp version                           DATE: 12-Dec-16          TIME: 17:44:16  
 **********************************************************************************************************************************

 Patch level:      19
 **********************************************************************************************************************************

 Variable memory set to  100000000 words,  buffer space   230000 words

 SETTING BASIS          =    AVTZ
 SETTING GEOMTYPE       =    XYZ

Geometry recognized as XYZ



 Recomputing integrals since basis changed


 Using spherical harmonics

 Library entry O      S aug-cc-pVTZ          selected for orbital group  1
 Library entry O      P aug-cc-pVTZ          selected for orbital group  1
 Library entry O      D aug-cc-pVTZ          selected for orbital group  1
 Library entry O      F aug-cc-pVTZ          selected for orbital group  1
 Library entry H      S aug-cc-pVTZ          selected for orbital group  2
 Library entry H      P aug-cc-pVTZ          selected for orbital group  2
 Library entry H      D aug-cc-pVTZ          selected for orbital group  2
 Library entry C      S aug-cc-pVTZ          selected for orbital group  3
 Library entry C      P aug-cc-pVTZ          selected for orbital group  3
 Library entry C      D aug-cc-pVTZ          selected for orbital group  3
 Library entry C      F aug-cc-pVTZ          selected for orbital group  3

1PROGRAM * SEWARD (Integral evaluation for generally contracted gaussian basis sets)     Author: Roland Lindh, 1990

 Geometry written to block  1 of record 700


 Point group  Cs  



 ATOMIC COORDINATES

 NR  ATOM    CHARGE       X              Y              Z

   1  O       8.00    1.566002401    2.195286343    0.000000000
   2  O       8.00    1.562010034   -2.196495862    0.000000000
   3  O       8.00   -3.101483949    0.001249260    0.000000000
   4  H       1.00   -4.204390499    1.438564846    0.000000000
   5  H       1.00   -4.203883845   -1.436458009    0.000000000
   6  C       6.00    1.528344714   -0.000566181    0.000000000

 Bond lengths in Bohr (Angstrom)

 1-6  2.196175405  2-6  2.196187724  3-4  1.811706088  3-5  1.811708509
     (1.162165971)     (1.162172490)     (0.958713571)     (0.958714852)

 Bond angles

  1-6-2  178.13918425   4-3-5  105.01947441

 NUCLEAR CHARGE:                   32
 NUMBER OF PRIMITIVE AOS:         322
 NUMBER OF SYMMETRY AOS:          282
 NUMBER OF CONTRACTIONS:          230   ( 152A'  +  78A"  )
 NUMBER OF CORE ORBITALS:           4   (   4A'  +   0A"  )
 NUMBER OF VALENCE ORBITALS:       18   (  14A'  +   4A"  )


 NUCLEAR REPULSION ENERGY  109.78280045


 Eigenvalues of metric

         1 0.215E-03 0.241E-03 0.286E-03 0.315E-03 0.521E-03 0.759E-03 0.846E-03 0.138E-02
         2 0.297E-02 0.346E-02 0.497E-02 0.117E-01 0.125E-01 0.244E-01 0.288E-01 0.292E-01


 Contracted 2-electron integrals neglected if value below      1.0D-11
 AO integral compression algorithm  1   Integral accuracy      1.0D-11

     779.878 MB (compressed) written to integral file ( 47.0%)

     Node minimum: 255.853 MB, node maximum: 262.144 MB


 NUMBER OF SORTED TWO-ELECTRON INTEGRALS:   59950380.     BUFFER LENGTH:  32768
 NUMBER OF SEGMENTS:   4  SEGMENT LENGTH:   15995235      RECORD LENGTH: 524288

 Memory used in sort:      16.55 MW

 SORT1 READ   207531521. AND WROTE    56841900. INTEGRALS IN    165 RECORDS. CPU TIME:     3.18 SEC, REAL TIME:     3.74 SEC
 SORT2 READ   170966648. AND WROTE   179836431. INTEGRALS IN   3000 RECORDS. CPU TIME:     1.10 SEC, REAL TIME:     1.63 SEC

 Node minimum:    59940574.  Node maximum:    59950380. integrals

 OPERATOR DM      FOR CENTER  0  COORDINATES:    0.000000    0.000000    0.000000


 **********************************************************************************************************************************
 DATASETS  * FILE   NREC   LENGTH (MB)   RECORD NAMES
              1      18        3.74       500      610      700      900      950      970     1000      129      960     1100   
                                          VAR    BASINP    GEOM    SYMINP    ZMAT    AOBASIS   BASIS     P2S    ABASIS      S 
                                         1400     1410     1200     1210     1080     1600     1650     1700   
                                           T        V       H0       H01     AOSYM     SMH    MOLCAS    OPER   

 PROGRAMS   *        TOTAL       INT
 CPU TIMES  *         8.95      8.87
 REAL TIME  *        10.26 SEC
 DISK USED  *         2.81 GB      
 GA USED    *         0.00 MB       (max)       0.00 MB       (current)
 **********************************************************************************************************************************

1PROGRAM * RHF-SCF (CLOSED SHELL)       Authors: W. Meyer, H.-J. Werner


 NUMBER OF ELECTRONS:      16+   16-
 CONVERGENCE THRESHOLDS:    1.00E-05 (Density)    1.00E-07 (Energy)
 MAX. NUMBER OF ITERATIONS:       60
 INTERPOLATION TYPE:            DIIS
 INTERPOLATION STEPS:              2 (START)      1 (STEP)
 LEVEL SHIFTS:                  0.00 (CLOSED)  0.00 (OPEN) 



 Orbital guess generated from atomic densities. Full valence occupancy:   18   4

 Molecular orbital dump at record        2100.2

 Initial alpha occupancy:  13   3
 Initial beta  occupancy:  13   3
 Wave function symmetry:    1

 ITERATION    DDIFF          GRAD             ENERGY        2-EL.EN.            DIPOLE MOMENTS         DIIS
    1      0.000D+00      0.000D+00      -263.66818411    416.143028   -1.27671   -0.00005    0.00000    0
    2      0.000D+00      0.609D-02      -263.73095736    411.411078   -0.96639   -0.00001    0.00000    1
    3      0.985D-02      0.401D-02      -263.76878165    413.787998   -1.00266    0.00002    0.00000    2
    4      0.394D-02      0.410D-03      -263.76930373    413.640306   -0.99768    0.00000    0.00000    3
    5      0.499D-03      0.125D-03      -263.76936464    413.611123   -0.99180    0.00001    0.00000    4
    6      0.188D-03      0.507D-04      -263.76937273    413.631181   -0.99217    0.00001    0.00000    5
    7      0.624D-04      0.109D-04      -263.76937345    413.622827   -0.99178    0.00001    0.00000    6
    8      0.202D-04      0.247D-05      -263.76937350    413.624345   -0.99184    0.00001    0.00000    7
    9      0.509D-05      0.832D-06      -263.76937350    413.624046   -0.99183    0.00001    0.00000    0

 Final occupancy:  13   3

 !RHF STATE 1.1 Energy               -263.769373499563
 Nuclear energy                       109.78280045
 One-electron energy                 -580.36419693
 Two-electron energy                  206.81202298
 Virial quotient                       -1.00159844
 !RHF STATE 1.1 Dipole moment          -0.99183126     0.00000794     0.00000000
 Dipole moment /Debye                  -2.52081850     0.00002018     0.00000000

 Orbital energies:

         1.1          2.1          3.1          4.1          5.1          6.1          7.1          8.1          9.1         10.1
    -20.623524   -20.623478   -20.582300   -11.436690    -1.503644    -1.450547    -1.371091    -0.775934    -0.735697    -0.718048

        11.1         12.1         13.1         14.1         15.1
     -0.701676    -0.592506    -0.519738     0.024195     0.047451

         1.2          2.2          3.2          4.2          5.2
     -0.688338    -0.528807    -0.518056     0.082958     0.167560


 **********************************************************************************************************************************
 DATASETS  * FILE   NREC   LENGTH (MB)   RECORD NAMES
              1      18        3.76       500      610      700      900      950      970     1000      129      960     1100   
                                          VAR    BASINP    GEOM    SYMINP    ZMAT    AOBASIS   BASIS     P2S    ABASIS      S 
                                         1400     1410     1200     1210     1080     1600     1650     1700   
                                           T        V       H0       H01     AOSYM     SMH    MOLCAS    OPER   

              2       3        0.96       700     1000     2100   
                                         GEOM     BASIS     RHF  

 PROGRAMS   *        TOTAL        HF       INT
 CPU TIMES  *        13.13      4.18      8.87
 REAL TIME  *        16.42 SEC
 DISK USED  *         2.83 GB      
 SF USED    *         0.12 MB      
 GA USED    *         0.00 MB       (max)       0.00 MB       (current)
 **********************************************************************************************************************************


1PROGRAM * CCSD (Closed-shell coupled cluster)     Authors: C. Hampel, H.-J. Werner, 1991, M. Deegan, P.J. Knowles, 1992

                                  CCSD-F12 implementation by  H.-J. Werner, 2007

                   Density fitting integral evaluation by F.R. Manby, 2003,2007, G. Knizia, 2010

 Basis set CC-PVTZ/JKFIT generated.      Number of basis functions:   376 
 Basis set AUG-CC-PVTZ/MP2FIT generated. Number of basis functions:   516 

 Convergence thresholds:  THRVAR = 1.00D-08  THRDEN = 1.00D-06

 CCSD(T)     terms to be evaluated (factor= 1.000)


 Number of core orbitals:           4 (   4   0 )
 Number of closed-shell orbitals:  12 (   9   3 )
 Number of external orbitals:     214 ( 139  75 )

 Molecular orbitals read from record     2100.2  Type=RHF/CANONICAL (state 1.1)

 MP2-F12 correlation treatment (H.-J. Werner, 2006)
 --------------------------------------------------

 Using MP2-F12 with ansatz 3C(FIX)

 Using projected zeroth-order Hamiltonian (+Z)

 FOCKRIB=T FOCKRIC=T FOCKRIP=T CABSP=T CABSA=T CABSK=T CABSF=T GBC=F EBC=F DMAT=T NOFIK=T NOPAO=1 SOLVE=-1  USEPAO=0
 EXCH_A= T EXCH_B= F EXCH_C= F EXCH_P= F
 
 Geminal basis:    OPTFULL  GEM_TYPE=SLATER  BETA=1.0  NGEM=6

 Optimizing Gaussian exponents for each gem_beta

 Geminal optimization for beta= 1.0000
 Weight function:   m=0, omega= 1.4646

 Augmented Hessian optimization of geminal fit. Trust ratio= 0.40000
 Convergence reached after   2 iterations. Final gradient= 8.24D-16, Step= 4.32D-06, Delta= 1.28D-09
 
 Alpha:                 0.19532     0.81920     2.85917     9.50073    35.69989   197.79328
 Coeff:                 0.27070     0.30552     0.18297     0.10986     0.06810     0.04224
 

 Symmetry turned off. Reference energy:       -263.769373499563

 All pairs explicitly correlated. Number of r12-pairs:           78
 
 AO(A)-basis ORBITAL           loaded. Number of functions:     230
 RI(R)-basis CC-PVTZ/JKFIT     loaded. Number of functions:     376
 DF-basis CC-PVTZ/JKFIT        loaded. Number of functions:     376

 Screening thresholds:   THRAO=  1.00D-10  THRMO=  1.00D-09  THRPROD=  1.00D-09
                         THRSW=  1.00D-05  THROV=  1.00D-12  THRF12=   1.00D-08

 CPU time for Fock operators                      0.93 sec
 
 Construction of ABS:
 Smallest eigenvalue of S          2.40E-04  (threshold= 1.00E-08)
 Ratio eigmin/eigmax               1.71E-06  (threshold= 1.00E-09)
 Smallest eigenvalue of S kept     2.40E-04  (threshold= 2.40E-04, 0 functions deleted, 376 kept)
 
 Construction of CABS:
 Smallest eigenvalue of S          2.23E-08  (threshold= 1.00E-08)
 Ratio eigmin/eigmax               2.23E-08  (threshold= 1.00E-09)
 Smallest eigenvalue of S kept     2.23E-08  (threshold= 2.23E-08, 0 functions deleted, 376 kept)
 
 CPU time for CABS singles                        0.16 sec

 CABS-singles contribution of  -0.01590654 patched into reference energy.
 New reference energy        -263.78528004
 
 AO(A)-basis ORBITAL           loaded. Number of functions:     230
 RI(R)-basis CC-PVTZ/JKFIT     loaded. Number of functions:     376
 DF-basis AUG-CC-PVTZ/MP2FIT   loaded. Number of functions:     516

 Screening thresholds:   THRAO=  1.00D-10  THRMO=  1.00D-09  THRPROD=  1.00D-09
                         THRSW=  1.00D-05  THROV=  1.00D-12  THRF12=   1.00D-08

 CPU time for 3-index integral evaluation         2.96 sec
 CPU time for first  half transformation          0.29 sec (10178.1 MFLOP/sec)
 CPU time for sorting                             0.14 sec
 CPU time for fitting                             0.06 sec (23217.5 MFLOP/sec)
 CPU time for tilde quantities                    0.06 sec (30814.7 MFLOP/sec)
 CPU time for assembly                            0.76 sec (31312.9 MFLOP/sec)
 CPU time for tranop_f12                          0.89 sec (33745.0 MFLOP/sec)
 CPU time for f12 integrals (total)               7.13 sec
 F12-matrices built in  3 passes.
 F12-matrices built in  3 passes.
 F12-matrices built in  3 passes.
 F12-matrices built in  3 passes.
 FC-matrix built in  3 passes.
 CPU time for f12 matrices (total)                0.49 sec

 Diagonal F12 approximation with fixed coefficients:  TSING= 0.500,  TTRIP= 0.250 (scaled by -1/beta)

 DF-MP2-F12 energy corrections:
 ------------------------------
 Approx.                                    Singlet             Triplet             Total
 DF-MP2-F12/3*C(DX,FIX)                -0.097408819048     -0.017060773319     -0.114469592367
 DF-MP2-F12/3*C(FIX)                   -0.079802825545     -0.013547389459     -0.093350215004
 DF-MP2-F12/3C(FIX)                    -0.080179739380     -0.013592188881     -0.093771928261

 DF-MP2-F12 correlation energies:
 --------------------------------
 Approx.                                    Singlet             Triplet             Ecorr            Total Energy
 DF-MP2                                -0.537903687274     -0.345665484293     -0.883569171567   -264.668849206698
 DF-MP2-F12/3*C(DX,FIX)                -0.635312506323     -0.362726257612     -0.998038763935   -264.783318799066
 DF-MP2-F12/3*C(FIX)                   -0.617706512819     -0.359212873752     -0.976919386571   -264.762199421703
 DF-MP2-F12/3C(FIX)                    -0.618083426654     -0.359257673174     -0.977341099829   -264.762621134960

 SCS-DF-MP2 energies (F_SING= 1.20000  F_TRIP= 0.62222  F_PARALLEL= 0.33333):
 ----------------------------------------------------------------------------
 SCS-DF-MP2                            -0.860565170511   -264.645845205643
 SCS-DF-MP2-F12/3*C(DX,FIX)            -0.988071345657   -264.773351380788
 SCS-DF-MP2-F12/3*C(FIX)               -0.964758047940   -264.750038083071
 SCS-DF-MP2-F12/3C(FIX)                -0.965238219738   -264.750518254869

 Symmetry restored.
 Symmetry transformation completed.

 Number of N-1 electron functions:              12
 Number of N-2 electron functions:              78
 Number of singly external CSFs:              1476
 Number of doubly external CSFs:           1686804
 Total number of CSFs:                     1688281

 Pair and operator lists are different

 Length of J-op  integral file:             466.42 MB
 Length of K-op  integral file:             526.62 MB
 Length of 3-ext integral record:             0.00 MB

 Memory could be reduced to 76.61 Mwords without degradation in triples

 Integral transformation finished. Total CPU:   3.95 sec, npass=  1  Memory used:  24.61 MW

 Reference energy:                   -263.78528004

 Adding F12 terms to K(Cij), methodcc=6,  factor=1.0

 ITER.      SQ.NORM     CORR.ENERGY   TOTAL ENERGY   ENERGY CHANGE        DEN1      VAR(S)    VAR(P)  DIIS     TIME
   1      1.20184745    -0.86533625  -264.65061629     0.01824417     0.04666768  0.72D-02  0.55D-02  1  1    15.68
   2      1.21610112    -0.86120829  -264.64648832     0.00412797    -0.02009372  0.91D-04  0.58D-03  2  2    18.47
   3      1.22146826    -0.86133361  -264.64661365    -0.00012533    -0.00234056  0.13D-03  0.31D-04  3  3    21.22
   4      1.22428912    -0.86120208  -264.64648211     0.00013153    -0.00141231  0.81D-05  0.40D-05  4  4    23.95
   5      1.22532901    -0.86116555  -264.64644559     0.00003652    -0.00036442  0.66D-06  0.28D-06  5  5    26.70
   6      1.22549503    -0.86113834  -264.64641837     0.00002721    -0.00000748  0.48D-07  0.26D-07  6  6    29.50
   7      1.22552813    -0.86113542  -264.64641546     0.00000292    -0.00000667  0.49D-08  0.40D-08  6  2    32.31
   8      1.22552888    -0.86113510  -264.64641513     0.00000032     0.00000202  0.46D-09  0.34D-09  6  1    35.05
   9      1.22552938    -0.86113519  -264.64641523    -0.00000009     0.00000076  0.55D-10  0.28D-10  6  4    37.80

 Norm of t1 vector:      0.10681243      S-energy:     0.00000006      T1 diagnostic:  0.01541705
                                                                       D1 diagnostic:  0.04655005

 Adding energy correction from Wij-K(Fij), methodcc=6  factor=1.0
 
  CCSD correlation energy              -0.861135191531
  MP2-F12 correction (uncoupled)       -0.092591373542
  C*T doubles correction               -0.001478901366
  f12b correction                       0.015426370946


 Total CPU time for triples:     72.42 sec


 RESULTS
 =======

  Reference energy                   -263.769373499563
  F12 singles correction               -0.015906535568

 F12 singles corrections added to reference energy

  New reference energy               -263.785280035131

  F12a singlet correction              -0.080371987335
  F12a triplet correction              -0.013698287574
  F12a total correction                -0.094070274908

 F12a corrections for ansatz F12/3C(FIX) added to CCSD energy
 
  CCSD-F12a singlet pair energy        -0.641610322536
  CCSD-F12a triplet pair energy        -0.313595203956
  CCSD-F12a correlation energy         -0.955205466439

  Triples (T) contribution             -0.038073801875
  Total correlation energy             -0.993279268315

  CCSD-F12a total energy             -264.740485501570
  CCSD[T]-F12a energy                -264.781102922075
  CCSD-T-F12a energy                 -264.777633943742
 !CCSD(T)-F12a total energy          -264.778559303446

 F12b corrections for ansatz F12/3C(FIX) added to CCSD(T)-F12a energy

  CCSD-F12b singlet pair energy        -0.627425260135
  CCSD-F12b triplet pair energy        -0.312353895411
  CCSD-F12b correlation energy         -0.939779095493

  Triples (T) contribution             -0.038073801875
  Total correlation energy             -0.977852897369

  CCSD-F12b total energy             -264.725059130625
  CCSD[T]-F12b energy                -264.765676551130
  CCSD-T-F12b energy                 -264.762207572796
 !CCSD(T)-F12b total energy          -264.763132932500

 Timing summary (sec):

 STEP                 CPU(USER)    SYS     CPU(TOT)    WALL
 Transformation          3.98      0.52      4.50      4.50
 CCSD iterations        24.77      1.55     26.32     26.33
 Triples                72.42      1.59     74.01     73.99
 MP2-F12                 9.06      1.07     10.13     10.44
 F12b energy             1.83      0.04      1.87      1.87

 Program statistics:

 Available memory in ccsd:                99998934
 Min. memory needed in ccsd:               4458306
 Max. memory used in ccsd:                 5958390
 Max. memory used in cckext:               6352469 (10 integral passes)



 **********************************************************************************************************************************
 DATASETS  * FILE   NREC   LENGTH (MB)   RECORD NAMES
              1      20      269.66       500      610      700      900      950      970     1000      129      960     1100   
                                          VAR    BASINP    GEOM    SYMINP    ZMAT    AOBASIS   BASIS     P2S    ABASIS      S 
                                         1400     1410     1200     1210     1080     1600     1650     1700      960(1)  1380   
                                           T        V       H0       H01     AOSYM     SMH    MOLCAS    OPER    ABASIS    JKOP   

              2       5        1.55       700     1000     2100     7360     7350   
                                         GEOM     BASIS     RHF    F12ABS    EF12   

 PROGRAMS   *        TOTAL   CCSD(T)        HF       INT
 CPU TIMES  *       125.34    112.21      4.18      8.87
 REAL TIME  *       133.87 SEC
 DISK USED  *         3.27 GB      
 SF USED    *         1.53 GB      
 GA USED    *         2.40 MB       (max)       0.00 MB       (current)
 **********************************************************************************************************************************

     CCSD(T)-F12        HF-SCF  
   -264.76313293   -263.76937350
 **********************************************************************************************************************************
 Variable memory released
