
 Primary working directories    : /scratch/kee
 Secondary working directories  : /scratch/kee
 Wavefunction directory         : /home/kee/wfu/
 Main file repository           : /scratch/kee/

 ARCHNAME  : Linux/x86_64
 FC        : /opt/intel/composer_xe_2015.0.090/bin/intel64/ifort
 FCVERSION : 15.0.0
 BLASLIB   : -L/opt/intel/mkl/lib/intel64 -lmkl_intel_ilp64 -lmkl_sequential -lmkl_core
 id        : emory

 Nodes     nprocs
 node22       3
 Number of processes for MPI-2 version of Molpro:   nprocs(total)=    4   nprocs(compute)=    3   nprocs(helper)=    1
 ga_uses_ma=false, calling ma_init with nominal heap.
 GA-space will be limited to   8.0 MW (determined by -G option)

 Using customized tuning parameters: mindgm=7; mindgv=32; mindgc=1; mindgr=1; noblas=0; mincuda=1000; minvec=7
 default implementation of scratch files=sf  

 ***,co2h2o
 memory,100,m
 basis avtz
 geomtype = xyz
 geometry = {
 6
    -264.76489694
 O     0.82869278    1.16169550    0.00000000
 O     0.82658011   -1.16233555    0.00000000
 O    -2.29123457    0.00091596    0.00000000
 H    -2.87486758    0.76151061    0.00000000
 H    -2.87459947   -0.75988596    0.00000000
 C     0.80876519   -0.00029961    0.00000000
 }
 hf
 ccsd(t)-f12
 ---

 Variables initialized (665), CPU time= 0.01 sec
 Commands  initialized (462), CPU time= 0.01 sec, 486 directives.
 Default parameters read. Elapsed time= 0.04 sec

 Checking input...
 Passed
1


                                         ***  PROGRAM SYSTEM MOLPRO  ***
                         Copyright, University College Cardiff Consultants Limited, 2008

                                    Version 2010.1 linked 9 Dec 2014 15:06:28 


 **********************************************************************************************************************************
 LABEL *   co2h2o                                                                        
 Linux-2.6.32-504.el6.x86_64/node22(x86_64) 64 bit mpp version                           DATE: 12-Dec-16          TIME: 18:14:27  
 **********************************************************************************************************************************

 Patch level:      19
 **********************************************************************************************************************************

 Variable memory set to  100000000 words,  buffer space   230000 words

 SETTING BASIS          =    AVTZ
 SETTING GEOMTYPE       =    XYZ

Geometry recognized as XYZ



 Recomputing integrals since basis changed


 Using spherical harmonics

 Library entry O      S aug-cc-pVTZ          selected for orbital group  1
 Library entry O      P aug-cc-pVTZ          selected for orbital group  1
 Library entry O      D aug-cc-pVTZ          selected for orbital group  1
 Library entry O      F aug-cc-pVTZ          selected for orbital group  1
 Library entry H      S aug-cc-pVTZ          selected for orbital group  2
 Library entry H      P aug-cc-pVTZ          selected for orbital group  2
 Library entry H      D aug-cc-pVTZ          selected for orbital group  2
 Library entry C      S aug-cc-pVTZ          selected for orbital group  3
 Library entry C      P aug-cc-pVTZ          selected for orbital group  3
 Library entry C      D aug-cc-pVTZ          selected for orbital group  3
 Library entry C      F aug-cc-pVTZ          selected for orbital group  3

1PROGRAM * SEWARD (Integral evaluation for generally contracted gaussian basis sets)     Author: Roland Lindh, 1990

 Geometry written to block  1 of record 700


 Point group  Cs  



 ATOMIC COORDINATES

 NR  ATOM    CHARGE       X              Y              Z

   1  O       8.00    1.566002401    2.195286343    0.000000000
   2  O       8.00    1.562010034   -2.196495862    0.000000000
   3  O       8.00   -4.329805840    0.001730914    0.000000000
   4  H       1.00   -5.432712390    1.439046499    0.000000000
   5  H       1.00   -5.432205736   -1.435976356    0.000000000
   6  C       6.00    1.528344714   -0.000566181    0.000000000

 Bond lengths in Bohr (Angstrom)

 1-6  2.196175405  2-6  2.196187724  3-4  1.811706088  3-5  1.811708509
     (1.162165971)     (1.162172490)     (0.958713571)     (0.958714852)

 Bond angles

  1-6-2  178.13918425   4-3-5  105.01947441

 NUCLEAR CHARGE:                   32
 NUMBER OF PRIMITIVE AOS:         322
 NUMBER OF SYMMETRY AOS:          282
 NUMBER OF CONTRACTIONS:          230   ( 152A'  +  78A"  )
 NUMBER OF CORE ORBITALS:           4   (   4A'  +   0A"  )
 NUMBER OF VALENCE ORBITALS:       18   (  14A'  +   4A"  )


 NUCLEAR REPULSION ENERGY  102.00034222


 Eigenvalues of metric

         1 0.275E-03 0.298E-03 0.339E-03 0.345E-03 0.838E-03 0.876E-03 0.935E-03 0.154E-02
         2 0.309E-02 0.346E-02 0.537E-02 0.122E-01 0.132E-01 0.270E-01 0.294E-01 0.300E-01


 Contracted 2-electron integrals neglected if value below      1.0D-11
 AO integral compression algorithm  1   Integral accuracy      1.0D-11

     696.779 MB (compressed) written to integral file ( 41.9%)

     Node minimum: 226.230 MB, node maximum: 240.648 MB


 NUMBER OF SORTED TWO-ELECTRON INTEGRALS:   59950380.     BUFFER LENGTH:  32768
 NUMBER OF SEGMENTS:   4  SEGMENT LENGTH:   15995235      RECORD LENGTH: 524288

 Memory used in sort:      16.55 MW

 SORT1 READ   207531521. AND WROTE    52906552. INTEGRALS IN    154 RECORDS. CPU TIME:     3.34 SEC, REAL TIME:     3.91 SEC
 SORT2 READ   159305237. AND WROTE   179836431. INTEGRALS IN   2754 RECORDS. CPU TIME:     1.11 SEC, REAL TIME:     1.55 SEC

 Node minimum:    59940574.  Node maximum:    59950380. integrals

 OPERATOR DM      FOR CENTER  0  COORDINATES:    0.000000    0.000000    0.000000


 **********************************************************************************************************************************
 DATASETS  * FILE   NREC   LENGTH (MB)   RECORD NAMES
              1      18        3.74       500      610      700      900      950      970     1000      129      960     1100   
                                          VAR    BASINP    GEOM    SYMINP    ZMAT    AOBASIS   BASIS     P2S    ABASIS      S 
                                         1400     1410     1200     1210     1080     1600     1650     1700   
                                           T        V       H0       H01     AOSYM     SMH    MOLCAS    OPER   

 PROGRAMS   *        TOTAL       INT
 CPU TIMES  *         8.90      8.83
 REAL TIME  *        10.17 SEC
 DISK USED  *         2.59 GB      
 GA USED    *         0.00 MB       (max)       0.00 MB       (current)
 **********************************************************************************************************************************

1PROGRAM * RHF-SCF (CLOSED SHELL)       Authors: W. Meyer, H.-J. Werner


 NUMBER OF ELECTRONS:      16+   16-
 CONVERGENCE THRESHOLDS:    1.00E-05 (Density)    1.00E-07 (Energy)
 MAX. NUMBER OF ITERATIONS:       60
 INTERPOLATION TYPE:            DIIS
 INTERPOLATION STEPS:              2 (START)      1 (STEP)
 LEVEL SHIFTS:                  0.00 (CLOSED)  0.00 (OPEN) 



 Orbital guess generated from atomic densities. Full valence occupancy:   18   4

 Molecular orbital dump at record        2100.2

 Initial alpha occupancy:  13   3
 Initial beta  occupancy:  13   3
 Wave function symmetry:    1

 ITERATION    DDIFF          GRAD             ENERGY        2-EL.EN.            DIPOLE MOMENTS         DIIS
    1      0.000D+00      0.000D+00      -263.66776868    400.268708   -1.20056   -0.00011    0.00000    0
    2      0.000D+00      0.619D-02      -263.73156105    395.529057   -0.82591   -0.00005    0.00000    1
    3      0.994D-02      0.414D-02      -263.77205117    398.042183   -0.90560   -0.00005    0.00000    2
    4      0.404D-02      0.405D-03      -263.77254996    397.852649   -0.90642   -0.00006    0.00000    3
    5      0.489D-03      0.119D-03      -263.77260842    397.842618   -0.90179   -0.00005    0.00000    4
    6      0.183D-03      0.486D-04      -263.77261595    397.859548   -0.90256   -0.00005    0.00000    5
    7      0.614D-04      0.113D-04      -263.77261668    397.850952   -0.90218   -0.00005    0.00000    6
    8      0.199D-04      0.252D-05      -263.77261673    397.852327   -0.90221   -0.00005    0.00000    7
    9      0.530D-05      0.841D-06      -263.77261673    397.852093   -0.90219   -0.00005    0.00000    0

 Final occupancy:  13   3

 !RHF STATE 1.1 Energy               -263.772616730669
 Nuclear energy                       102.00034222
 One-electron energy                 -564.69900554
 Two-electron energy                  198.92604659
 Virial quotient                       -1.00183716
 !RHF STATE 1.1 Dipole moment          -0.90218977    -0.00005084     0.00000000
 Dipole moment /Debye                  -2.29298747    -0.00012920     0.00000000

 Orbital energies:

         1.1          2.1          3.1          4.1          5.1          6.1          7.1          8.1          9.1         10.1
    -20.634547   -20.634501   -20.576325   -11.444524    -1.512404    -1.459531    -1.362030    -0.783809    -0.727450    -0.726024

        11.1         12.1         13.1         14.1         15.1
     -0.697121    -0.594419    -0.526979     0.026032     0.047674

         1.2          2.2          3.2          4.2          5.2
     -0.696850    -0.526961    -0.519982     0.082516     0.168369


 **********************************************************************************************************************************
 DATASETS  * FILE   NREC   LENGTH (MB)   RECORD NAMES
              1      18        3.76       500      610      700      900      950      970     1000      129      960     1100   
                                          VAR    BASINP    GEOM    SYMINP    ZMAT    AOBASIS   BASIS     P2S    ABASIS      S 
                                         1400     1410     1200     1210     1080     1600     1650     1700   
                                           T        V       H0       H01     AOSYM     SMH    MOLCAS    OPER   

              2       3        0.96       700     1000     2100   
                                         GEOM     BASIS     RHF  

 PROGRAMS   *        TOTAL        HF       INT
 CPU TIMES  *        13.19      4.29      8.83
 REAL TIME  *        14.82 SEC
 DISK USED  *         2.62 GB      
 SF USED    *         0.12 MB      
 GA USED    *         0.00 MB       (max)       0.00 MB       (current)
 **********************************************************************************************************************************


1PROGRAM * CCSD (Closed-shell coupled cluster)     Authors: C. Hampel, H.-J. Werner, 1991, M. Deegan, P.J. Knowles, 1992

                                  CCSD-F12 implementation by  H.-J. Werner, 2007

                   Density fitting integral evaluation by F.R. Manby, 2003,2007, G. Knizia, 2010

 Basis set CC-PVTZ/JKFIT generated.      Number of basis functions:   376 
 Basis set AUG-CC-PVTZ/MP2FIT generated. Number of basis functions:   516 

 Convergence thresholds:  THRVAR = 1.00D-08  THRDEN = 1.00D-06

 CCSD(T)     terms to be evaluated (factor= 1.000)


 Number of core orbitals:           4 (   4   0 )
 Number of closed-shell orbitals:  12 (   9   3 )
 Number of external orbitals:     214 ( 139  75 )

 Molecular orbitals read from record     2100.2  Type=RHF/CANONICAL (state 1.1)

 MP2-F12 correlation treatment (H.-J. Werner, 2006)
 --------------------------------------------------

 Using MP2-F12 with ansatz 3C(FIX)

 Using projected zeroth-order Hamiltonian (+Z)

 FOCKRIB=T FOCKRIC=T FOCKRIP=T CABSP=T CABSA=T CABSK=T CABSF=T GBC=F EBC=F DMAT=T NOFIK=T NOPAO=1 SOLVE=-1  USEPAO=0
 EXCH_A= T EXCH_B= F EXCH_C= F EXCH_P= F
 
 Geminal basis:    OPTFULL  GEM_TYPE=SLATER  BETA=1.0  NGEM=6

 Optimizing Gaussian exponents for each gem_beta

 Geminal optimization for beta= 1.0000
 Weight function:   m=0, omega= 1.4646

 Augmented Hessian optimization of geminal fit. Trust ratio= 0.40000
 Convergence reached after   2 iterations. Final gradient= 8.24D-16, Step= 4.32D-06, Delta= 1.28D-09
 
 Alpha:                 0.19532     0.81920     2.85917     9.50073    35.69989   197.79328
 Coeff:                 0.27070     0.30552     0.18297     0.10986     0.06810     0.04224
 

 Symmetry turned off. Reference energy:       -263.772616730669

 All pairs explicitly correlated. Number of r12-pairs:           78
 
 AO(A)-basis ORBITAL           loaded. Number of functions:     230
 RI(R)-basis CC-PVTZ/JKFIT     loaded. Number of functions:     376
 DF-basis CC-PVTZ/JKFIT        loaded. Number of functions:     376

 Screening thresholds:   THRAO=  1.00D-10  THRMO=  1.00D-09  THRPROD=  1.00D-09
                         THRSW=  1.00D-05  THROV=  1.00D-12  THRF12=   1.00D-08

 CPU time for Fock operators                      0.99 sec
 
 Construction of ABS:
 Smallest eigenvalue of S          2.54E-04  (threshold= 1.00E-08)
 Ratio eigmin/eigmax               1.81E-06  (threshold= 1.00E-09)
 Smallest eigenvalue of S kept     2.54E-04  (threshold= 2.54E-04, 0 functions deleted, 376 kept)
 
 Construction of CABS:
 Smallest eigenvalue of S          2.27E-08  (threshold= 1.00E-08)
 Ratio eigmin/eigmax               2.27E-08  (threshold= 1.00E-09)
 Smallest eigenvalue of S kept     2.27E-08  (threshold= 2.27E-08, 0 functions deleted, 376 kept)
 
 CPU time for CABS singles                        0.16 sec

 CABS-singles contribution of  -0.01592340 patched into reference energy.
 New reference energy        -263.78854013
 
 AO(A)-basis ORBITAL           loaded. Number of functions:     230
 RI(R)-basis CC-PVTZ/JKFIT     loaded. Number of functions:     376
 DF-basis AUG-CC-PVTZ/MP2FIT   loaded. Number of functions:     516

 Screening thresholds:   THRAO=  1.00D-10  THRMO=  1.00D-09  THRPROD=  1.00D-09
                         THRSW=  1.00D-05  THROV=  1.00D-12  THRF12=   1.00D-08

 CPU time for 3-index integral evaluation         2.93 sec
 CPU time for first  half transformation          0.24 sec (12891.8 MFLOP/sec)
 CPU time for second half transformation          0.02 sec ( 5590.7 MFLOP/sec)
 CPU time for sorting                             0.17 sec
 CPU time for fitting                             0.05 sec (27861.0 MFLOP/sec)
 CPU time for tilde quantities                    0.07 sec (26412.6 MFLOP/sec)
 CPU time for assembly                            0.81 sec (29250.5 MFLOP/sec)
 CPU time for tranop_f12                          0.85 sec (34626.6 MFLOP/sec)
 CPU time for f12 integrals (total)               7.21 sec
 F12-matrices built in  3 passes.
 F12-matrices built in  3 passes.
 F12-matrices built in  3 passes.
 F12-matrices built in  3 passes.
 FC-matrix built in  3 passes.
 CPU time for f12 matrices (total)                0.48 sec

 Diagonal F12 approximation with fixed coefficients:  TSING= 0.500,  TTRIP= 0.250 (scaled by -1/beta)

 DF-MP2-F12 energy corrections:
 ------------------------------
 Approx.                                    Singlet             Triplet             Total
 DF-MP2-F12/3*C(DX,FIX)                -0.097361783580     -0.016957604175     -0.114319387756
 DF-MP2-F12/3*C(FIX)                   -0.079797677952     -0.013437364891     -0.093235042843
 DF-MP2-F12/3C(FIX)                    -0.080167638222     -0.013469666382     -0.093637304603

 DF-MP2-F12 correlation energies:
 --------------------------------
 Approx.                                    Singlet             Triplet             Ecorr            Total Energy
 DF-MP2                                -0.537736494464     -0.343804410794     -0.881540905258   -264.670081034973
 DF-MP2-F12/3*C(DX,FIX)                -0.635098278044     -0.360762014969     -0.995860293013   -264.784400422729
 DF-MP2-F12/3*C(FIX)                   -0.617534172416     -0.357241775685     -0.974775948101   -264.763316077817
 DF-MP2-F12/3C(FIX)                    -0.617904132686     -0.357274077175     -0.975178209861   -264.763718339577

 SCS-DF-MP2 energies (F_SING= 1.20000  F_TRIP= 0.62222  F_PARALLEL= 0.33333):
 ----------------------------------------------------------------------------
 SCS-DF-MP2                            -0.859206537851   -264.647746667566
 SCS-DF-MP2-F12/3*C(DX,FIX)            -0.986592076300   -264.775132206016
 SCS-DF-MP2-F12/3*C(FIX)               -0.963324778436   -264.751864908152
 SCS-DF-MP2-F12/3C(FIX)                -0.963788829465   -264.752328959181

 Symmetry restored.
 Symmetry transformation completed.

 Number of N-1 electron functions:              12
 Number of N-2 electron functions:              78
 Number of singly external CSFs:              1476
 Number of doubly external CSFs:           1686804
 Total number of CSFs:                     1688281

 Pair and operator lists are different

 Length of J-op  integral file:             466.42 MB
 Length of K-op  integral file:             526.62 MB
 Length of 3-ext integral record:             0.00 MB

 Memory could be reduced to 76.61 Mwords without degradation in triples

 Integral transformation finished. Total CPU:   4.07 sec, npass=  1  Memory used:  24.61 MW

 Reference energy:                   -263.78854013

 Adding F12 terms to K(Cij), methodcc=6,  factor=1.0

 ITER.      SQ.NORM     CORR.ENERGY   TOTAL ENERGY   ENERGY CHANGE        DEN1      VAR(S)    VAR(P)  DIIS     TIME
   1      1.20210295    -0.86348686  -264.65202699     0.01806865     0.04659200  0.72D-02  0.55D-02  1  1    16.15
   2      1.21638842    -0.85931431  -264.64785444     0.00417256    -0.02010426  0.88D-04  0.59D-03  2  2    18.97
   3      1.22175974    -0.85942190  -264.64796203    -0.00010759    -0.00237022  0.13D-03  0.32D-04  3  3    21.80
   4      1.22457464    -0.85929374  -264.64783387     0.00012816    -0.00141384  0.77D-05  0.40D-05  4  4    24.62
   5      1.22560351    -0.85925658  -264.64779671     0.00003716    -0.00036466  0.56D-06  0.28D-06  5  5    27.48
   6      1.22576302    -0.85922989  -264.64777002     0.00002669    -0.00000699  0.41D-07  0.24D-07  6  6    30.36
   7      1.22579233    -0.85922749  -264.64776762     0.00000240    -0.00000593  0.31D-08  0.40D-08  6  4    33.24
   8      1.22579074    -0.85922732  -264.64776745     0.00000017     0.00000330  0.53D-09  0.32D-09  6  3    36.10
   9      1.22579358    -0.85922697  -264.64776710     0.00000035    -0.00000105  0.41D-10  0.24D-10  6  1    39.02

 Norm of t1 vector:      0.10616990      S-energy:     0.00000018      T1 diagnostic:  0.01532431
                                                                       D1 diagnostic:  0.04539552

 Adding energy correction from Wij-K(Fij), methodcc=6  factor=1.0
 
  CCSD correlation energy              -0.859226968394
  MP2-F12 correction (uncoupled)       -0.092470139225
  C*T doubles correction               -0.001475007965
  f12b correction                       0.015409152012


 Total CPU time for triples:     74.01 sec


 RESULTS
 =======

  Reference energy                   -263.772616730669
  F12 singles correction               -0.015923399047

 F12 singles corrections added to reference energy

  New reference energy               -263.788540129716

  F12a singlet correction              -0.080361953758
  F12a triplet correction              -0.013583193432
  F12a total correction                -0.093945147190

 F12a corrections for ansatz F12/3C(FIX) added to CCSD energy
 
  CCSD-F12a singlet pair energy        -0.641740932731
  CCSD-F12a triplet pair energy        -0.311431363925
  CCSD-F12a correlation energy         -0.953172115584

  Triples (T) contribution             -0.037780245195
  Total correlation energy             -0.990952360779

  CCSD-F12a total energy             -264.741712245300
  CCSD[T]-F12a energy                -264.782031268471
  CCSD-T-F12a energy                 -264.778560550705
 !CCSD(T)-F12a total energy          -264.779492490495

 F12b corrections for ansatz F12/3C(FIX) added to CCSD(T)-F12a energy

  CCSD-F12b singlet pair energy        -0.627559818215
  CCSD-F12b triplet pair energy        -0.310203326429
  CCSD-F12b correlation energy         -0.937762963572

  Triples (T) contribution             -0.037780245195
  Total correlation energy             -0.975543208767

  CCSD-F12b total energy             -264.726303093288
  CCSD[T]-F12b energy                -264.766622116459
  CCSD-T-F12b energy                 -264.763151398693
 !CCSD(T)-F12b total energy          -264.764083338483

 Timing summary (sec):

 STEP                 CPU(USER)    SYS     CPU(TOT)    WALL
 Transformation          4.10      0.53      4.63      4.63
 CCSD iterations        25.61      1.58     27.19     27.44
 Triples                74.01      1.51     75.52     75.49
 MP2-F12                 9.32      1.22     10.54     10.54
 F12b energy             2.03      0.05      2.08      2.07

 Program statistics:

 Available memory in ccsd:                99998934
 Min. memory needed in ccsd:               4458306
 Max. memory used in ccsd:                 5958390
 Max. memory used in cckext:               6352469 (10 integral passes)



 **********************************************************************************************************************************
 DATASETS  * FILE   NREC   LENGTH (MB)   RECORD NAMES
              1      20      269.66       500      610      700      900      950      970     1000      129      960     1100   
                                          VAR    BASINP    GEOM    SYMINP    ZMAT    AOBASIS   BASIS     P2S    ABASIS      S 
                                         1400     1410     1200     1210     1080     1600     1650     1700      960(1)  1380   
                                           T        V       H0       H01     AOSYM     SMH    MOLCAS    OPER    ABASIS    JKOP   

              2       5        1.55       700     1000     2100     7360     7350   
                                         GEOM     BASIS     RHF    F12ABS    EF12   

 PROGRAMS   *        TOTAL   CCSD(T)        HF       INT
 CPU TIMES  *       128.28    115.09      4.29      8.83
 REAL TIME  *       135.33 SEC
 DISK USED  *         3.06 GB      
 SF USED    *         1.53 GB      
 GA USED    *         2.40 MB       (max)       0.00 MB       (current)
 **********************************************************************************************************************************

     CCSD(T)-F12        HF-SCF  
   -264.76408334   -263.77261673
 **********************************************************************************************************************************
 Variable memory released
