
 Primary working directories    : /scratch/kee
 Secondary working directories  : /scratch/kee
 Wavefunction directory         : /home/kee/wfu/
 Main file repository           : /scratch/kee/

 ARCHNAME  : Linux/x86_64
 FC        : /opt/intel/composer_xe_2015.0.090/bin/intel64/ifort
 FCVERSION : 15.0.0
 BLASLIB   : -L/opt/intel/mkl/lib/intel64 -lmkl_intel_ilp64 -lmkl_sequential -lmkl_core
 id        : emory

 Nodes     nprocs
 node22       3
 Number of processes for MPI-2 version of Molpro:   nprocs(total)=    4   nprocs(compute)=    3   nprocs(helper)=    1
 ga_uses_ma=false, calling ma_init with nominal heap.
 GA-space will be limited to   8.0 MW (determined by -G option)

 Using customized tuning parameters: mindgm=7; mindgv=32; mindgc=1; mindgr=1; noblas=0; mincuda=1000; minvec=7
 default implementation of scratch files=sf  

 ***,co2h2o
 memory,100,m
 basis avtz
 geomtype = xyz
 geometry = {
 6
    -264.76489694
 O     0.82869278    1.16169550    0.00000000
 O     0.82658011   -1.16233555    0.00000000
 O    -1.39123464    0.00056305    0.00000000
 H    -1.97486765    0.76115770    0.00000000
 H    -1.97459954   -0.76023887    0.00000000
 C     0.80876519   -0.00029961    0.00000000
 }
 hf
 ccsd(t)-f12
 ---

 Variables initialized (665), CPU time= 0.00 sec
 Commands  initialized (462), CPU time= 0.01 sec, 486 directives.
 Default parameters read. Elapsed time= 0.03 sec

 Checking input...
 Passed
1


                                         ***  PROGRAM SYSTEM MOLPRO  ***
                         Copyright, University College Cardiff Consultants Limited, 2008

                                    Version 2010.1 linked 9 Dec 2014 15:06:28 


 **********************************************************************************************************************************
 LABEL *   co2h2o                                                                        
 Linux-2.6.32-504.el6.x86_64/node22(x86_64) 64 bit mpp version                           DATE: 12-Dec-16          TIME: 17:33:31  
 **********************************************************************************************************************************

 Patch level:      19
 **********************************************************************************************************************************

 Variable memory set to  100000000 words,  buffer space   230000 words

 SETTING BASIS          =    AVTZ
 SETTING GEOMTYPE       =    XYZ

Geometry recognized as XYZ



 Recomputing integrals since basis changed


 Using spherical harmonics

 Library entry O      S aug-cc-pVTZ          selected for orbital group  1
 Library entry O      P aug-cc-pVTZ          selected for orbital group  1
 Library entry O      D aug-cc-pVTZ          selected for orbital group  1
 Library entry O      F aug-cc-pVTZ          selected for orbital group  1
 Library entry H      S aug-cc-pVTZ          selected for orbital group  2
 Library entry H      P aug-cc-pVTZ          selected for orbital group  2
 Library entry H      D aug-cc-pVTZ          selected for orbital group  2
 Library entry C      S aug-cc-pVTZ          selected for orbital group  3
 Library entry C      P aug-cc-pVTZ          selected for orbital group  3
 Library entry C      D aug-cc-pVTZ          selected for orbital group  3
 Library entry C      F aug-cc-pVTZ          selected for orbital group  3

1PROGRAM * SEWARD (Integral evaluation for generally contracted gaussian basis sets)     Author: Roland Lindh, 1990

 Geometry written to block  1 of record 700


 Point group  Cs  



 ATOMIC COORDINATES

 NR  ATOM    CHARGE       X              Y              Z

   1  O       8.00    1.566002401    2.195286343    0.000000000
   2  O       8.00    1.562010034   -2.196495862    0.000000000
   3  O       8.00   -2.629052454    0.001064010    0.000000000
   4  H       1.00   -3.731959004    1.438379596    0.000000000
   5  H       1.00   -3.731452350   -1.436643259    0.000000000
   6  C       6.00    1.528344714   -0.000566181    0.000000000

 Bond lengths in Bohr (Angstrom)

 1-6  2.196175405  2-6  2.196187724  3-4  1.811706088  3-5  1.811708509
     (1.162165971)     (1.162172490)     (0.958713571)     (0.958714852)

 Bond angles

  1-6-2  178.13918425   4-3-5  105.01947441

 NUCLEAR CHARGE:                   32
 NUMBER OF PRIMITIVE AOS:         322
 NUMBER OF SYMMETRY AOS:          282
 NUMBER OF CONTRACTIONS:          230   ( 152A'  +  78A"  )
 NUMBER OF CORE ORBITALS:           4   (   4A'  +   0A"  )
 NUMBER OF VALENCE ORBITALS:       18   (  14A'  +   4A"  )


 NUCLEAR REPULSION ENERGY  113.73532797


 Eigenvalues of metric

         1 0.203E-03 0.220E-03 0.264E-03 0.306E-03 0.413E-03 0.710E-03 0.806E-03 0.129E-02
         2 0.288E-02 0.346E-02 0.479E-02 0.113E-01 0.121E-01 0.229E-01 0.287E-01 0.291E-01


 Contracted 2-electron integrals neglected if value below      1.0D-11
 AO integral compression algorithm  1   Integral accuracy      1.0D-11

     807.404 MB (compressed) written to integral file ( 48.6%)

     Node minimum: 252.707 MB, node maximum: 281.281 MB


 NUMBER OF SORTED TWO-ELECTRON INTEGRALS:   59950380.     BUFFER LENGTH:  32768
 NUMBER OF SEGMENTS:   4  SEGMENT LENGTH:   15995235      RECORD LENGTH: 524288

 Memory used in sort:      16.55 MW

 SORT1 READ   207531521. AND WROTE    57875005. INTEGRALS IN    168 RECORDS. CPU TIME:     3.04 SEC, REAL TIME:     3.54 SEC
 SORT2 READ   173942482. AND WROTE   179836431. INTEGRALS IN   3129 RECORDS. CPU TIME:     1.03 SEC, REAL TIME:     1.42 SEC

 Node minimum:    59940574.  Node maximum:    59950380. integrals

 OPERATOR DM      FOR CENTER  0  COORDINATES:    0.000000    0.000000    0.000000


 **********************************************************************************************************************************
 DATASETS  * FILE   NREC   LENGTH (MB)   RECORD NAMES
              1      18        3.74       500      610      700      900      950      970     1000      129      960     1100   
                                          VAR    BASINP    GEOM    SYMINP    ZMAT    AOBASIS   BASIS     P2S    ABASIS      S 
                                         1400     1410     1200     1210     1080     1600     1650     1700   
                                           T        V       H0       H01     AOSYM     SMH    MOLCAS    OPER   

 PROGRAMS   *        TOTAL       INT
 CPU TIMES  *         8.36      8.29
 REAL TIME  *         9.45 SEC
 DISK USED  *         2.88 GB      
 GA USED    *         0.00 MB       (max)       0.00 MB       (current)
 **********************************************************************************************************************************

1PROGRAM * RHF-SCF (CLOSED SHELL)       Authors: W. Meyer, H.-J. Werner


 NUMBER OF ELECTRONS:      16+   16-
 CONVERGENCE THRESHOLDS:    1.00E-05 (Density)    1.00E-07 (Energy)
 MAX. NUMBER OF ITERATIONS:       60
 INTERPOLATION TYPE:            DIIS
 INTERPOLATION STEPS:              2 (START)      1 (STEP)
 LEVEL SHIFTS:                  0.00 (CLOSED)  0.00 (OPEN) 



 Orbital guess generated from atomic densities. Full valence occupancy:   18   4

 Molecular orbital dump at record        2100.2

 Initial alpha occupancy:  13   3
 Initial beta  occupancy:  13   3
 Wave function symmetry:    1

 ITERATION    DDIFF          GRAD             ENERGY        2-EL.EN.            DIPOLE MOMENTS         DIIS
    1      0.000D+00      0.000D+00      -263.66024053    424.205598   -1.35831    0.00001    0.00000    0
    2      0.000D+00      0.605D-02      -263.72299220    419.471682   -1.06878    0.00004    0.00000    1
    3      0.987D-02      0.396D-02      -263.75967779    421.745631   -1.07763    0.00008    0.00000    2
    4      0.389D-02      0.416D-03      -263.76022804    421.638613   -1.06859    0.00005    0.00000    3
    5      0.511D-03      0.131D-03      -263.76029273    421.592563   -1.06161    0.00006    0.00000    4
    6      0.193D-03      0.520D-04      -263.76030127    421.615153   -1.06157    0.00006    0.00000    5
    7      0.632D-04      0.106D-04      -263.76030198    421.607241   -1.06115    0.00006    0.00000    6
    8      0.202D-04      0.240D-05      -263.76030202    421.608845   -1.06121    0.00006    0.00000    7
    9      0.493D-05      0.836D-06      -263.76030202    421.608483   -1.06121    0.00006    0.00000    0

 Final occupancy:  13   3

 !RHF STATE 1.1 Energy               -263.760302018181
 Nuclear energy                       113.73532797
 One-electron energy                 -588.29987140
 Two-electron energy                  210.80424142
 Virial quotient                       -1.00124849
 !RHF STATE 1.1 Dipole moment          -1.06120938     0.00005982     0.00000000
 Dipole moment /Debye                  -2.69714853     0.00015205     0.00000000

 Orbital energies:

         1.1          2.1          3.1          4.1          5.1          6.1          7.1          8.1          9.1         10.1
    -20.615511   -20.615462   -20.586232   -11.433043    -1.499706    -1.445433    -1.378232    -0.772531    -0.742901    -0.714502

        11.1         12.1         13.1         14.1         15.1
     -0.713067    -0.581331    -0.515822     0.023120     0.047077

         1.2          2.2          3.2          4.2          5.2
     -0.684137    -0.535449    -0.512335     0.082858     0.165124


 **********************************************************************************************************************************
 DATASETS  * FILE   NREC   LENGTH (MB)   RECORD NAMES
              1      18        3.76       500      610      700      900      950      970     1000      129      960     1100   
                                          VAR    BASINP    GEOM    SYMINP    ZMAT    AOBASIS   BASIS     P2S    ABASIS      S 
                                         1400     1410     1200     1210     1080     1600     1650     1700   
                                           T        V       H0       H01     AOSYM     SMH    MOLCAS    OPER   

              2       3        0.96       700     1000     2100   
                                         GEOM     BASIS     RHF  

 PROGRAMS   *        TOTAL        HF       INT
 CPU TIMES  *        12.08      3.72      8.29
 REAL TIME  *        13.55 SEC
 DISK USED  *         2.90 GB      
 SF USED    *         0.12 MB      
 GA USED    *         0.00 MB       (max)       0.00 MB       (current)
 **********************************************************************************************************************************


1PROGRAM * CCSD (Closed-shell coupled cluster)     Authors: C. Hampel, H.-J. Werner, 1991, M. Deegan, P.J. Knowles, 1992

                                  CCSD-F12 implementation by  H.-J. Werner, 2007

                   Density fitting integral evaluation by F.R. Manby, 2003,2007, G. Knizia, 2010

 Basis set CC-PVTZ/JKFIT generated.      Number of basis functions:   376 
 Basis set AUG-CC-PVTZ/MP2FIT generated. Number of basis functions:   516 

 Convergence thresholds:  THRVAR = 1.00D-08  THRDEN = 1.00D-06

 CCSD(T)     terms to be evaluated (factor= 1.000)


 Number of core orbitals:           4 (   4   0 )
 Number of closed-shell orbitals:  12 (   9   3 )
 Number of external orbitals:     214 ( 139  75 )

 Molecular orbitals read from record     2100.2  Type=RHF/CANONICAL (state 1.1)

 MP2-F12 correlation treatment (H.-J. Werner, 2006)
 --------------------------------------------------

 Using MP2-F12 with ansatz 3C(FIX)

 Using projected zeroth-order Hamiltonian (+Z)

 FOCKRIB=T FOCKRIC=T FOCKRIP=T CABSP=T CABSA=T CABSK=T CABSF=T GBC=F EBC=F DMAT=T NOFIK=T NOPAO=1 SOLVE=-1  USEPAO=0
 EXCH_A= T EXCH_B= F EXCH_C= F EXCH_P= F
 
 Geminal basis:    OPTFULL  GEM_TYPE=SLATER  BETA=1.0  NGEM=6

 Optimizing Gaussian exponents for each gem_beta

 Geminal optimization for beta= 1.0000
 Weight function:   m=0, omega= 1.4646

 Augmented Hessian optimization of geminal fit. Trust ratio= 0.40000
 Convergence reached after   2 iterations. Final gradient= 8.24D-16, Step= 4.32D-06, Delta= 1.28D-09
 
 Alpha:                 0.19532     0.81920     2.85917     9.50073    35.69989   197.79328
 Coeff:                 0.27070     0.30552     0.18297     0.10986     0.06810     0.04224
 

 Symmetry turned off. Reference energy:       -263.760302018181

 All pairs explicitly correlated. Number of r12-pairs:           78
 
 AO(A)-basis ORBITAL           loaded. Number of functions:     230
 RI(R)-basis CC-PVTZ/JKFIT     loaded. Number of functions:     376
 DF-basis CC-PVTZ/JKFIT        loaded. Number of functions:     376

 Screening thresholds:   THRAO=  1.00D-10  THRMO=  1.00D-09  THRPROD=  1.00D-09
                         THRSW=  1.00D-05  THROV=  1.00D-12  THRF12=   1.00D-08

 CPU time for Fock operators                      0.86 sec
 
 Construction of ABS:
 Smallest eigenvalue of S          2.28E-04  (threshold= 1.00E-08)
 Ratio eigmin/eigmax               1.63E-06  (threshold= 1.00E-09)
 Smallest eigenvalue of S kept     2.28E-04  (threshold= 2.28E-04, 0 functions deleted, 376 kept)
 
 Construction of CABS:
 Smallest eigenvalue of S          2.22E-08  (threshold= 1.00E-08)
 Ratio eigmin/eigmax               2.22E-08  (threshold= 1.00E-09)
 Smallest eigenvalue of S kept     2.22E-08  (threshold= 2.22E-08, 0 functions deleted, 376 kept)
 
 CPU time for CABS singles                        0.14 sec

 CABS-singles contribution of  -0.01591925 patched into reference energy.
 New reference energy        -263.77622127
 
 AO(A)-basis ORBITAL           loaded. Number of functions:     230
 RI(R)-basis CC-PVTZ/JKFIT     loaded. Number of functions:     376
 DF-basis AUG-CC-PVTZ/MP2FIT   loaded. Number of functions:     516

 Screening thresholds:   THRAO=  1.00D-10  THRMO=  1.00D-09  THRPROD=  1.00D-09
                         THRSW=  1.00D-05  THROV=  1.00D-12  THRF12=   1.00D-08

 CPU time for 3-index integral evaluation         2.76 sec
 CPU time for first  half transformation          0.24 sec (11613.2 MFLOP/sec)
 CPU time for second half transformation          0.01 sec (11163.6 MFLOP/sec)
 CPU time for sorting                             0.12 sec
 CPU time for fitting                             0.04 sec (34826.3 MFLOP/sec)
 CPU time for tilde quantities                    0.06 sec (30814.7 MFLOP/sec)
 CPU time for assembly                            0.73 sec (33171.4 MFLOP/sec)
 CPU time for tranop_f12                          0.81 sec (37515.7 MFLOP/sec)
 CPU time for f12 integrals (total)               6.59 sec
 F12-matrices built in  3 passes.
 F12-matrices built in  3 passes.
 F12-matrices built in  3 passes.
 F12-matrices built in  3 passes.
 FC-matrix built in  3 passes.
 CPU time for f12 matrices (total)                0.45 sec

 Diagonal F12 approximation with fixed coefficients:  TSING= 0.500,  TTRIP= 0.250 (scaled by -1/beta)

 DF-MP2-F12 energy corrections:
 ------------------------------
 Approx.                                    Singlet             Triplet             Total
 DF-MP2-F12/3*C(DX,FIX)                -0.097531225014     -0.017156450511     -0.114687675524
 DF-MP2-F12/3*C(FIX)                   -0.079882104674     -0.013641588417     -0.093523693091
 DF-MP2-F12/3C(FIX)                    -0.080257255195     -0.013694689639     -0.093951944834

 DF-MP2-F12 correlation energies:
 --------------------------------
 Approx.                                    Singlet             Triplet             Ecorr            Total Energy
 DF-MP2                                -0.537945741958     -0.347179853069     -0.885125595027   -264.661346867743
 DF-MP2-F12/3*C(DX,FIX)                -0.635476966972     -0.364336303580     -0.999813270552   -264.776034543267
 DF-MP2-F12/3*C(FIX)                   -0.617827846632     -0.360821441486     -0.978649288119   -264.754870560834
 DF-MP2-F12/3C(FIX)                    -0.618202997153     -0.360874542708     -0.979077539861   -264.755298812577

 SCS-DF-MP2 energies (F_SING= 1.20000  F_TRIP= 0.62222  F_PARALLEL= 0.33333):
 ----------------------------------------------------------------------------
 SCS-DF-MP2                            -0.861557910037   -264.637779182753
 SCS-DF-MP2-F12/3*C(DX,FIX)            -0.989270504816   -264.765491777532
 SCS-DF-MP2-F12/3*C(FIX)               -0.965904535106   -264.742125807821
 SCS-DF-MP2-F12/3C(FIX)                -0.966387756491   -264.742609029207

 Symmetry restored.
 Symmetry transformation completed.

 Number of N-1 electron functions:              12
 Number of N-2 electron functions:              78
 Number of singly external CSFs:              1476
 Number of doubly external CSFs:           1686804
 Total number of CSFs:                     1688281

 Pair and operator lists are different

 Length of J-op  integral file:             466.42 MB
 Length of K-op  integral file:             526.62 MB
 Length of 3-ext integral record:             0.00 MB

 Memory could be reduced to 76.61 Mwords without degradation in triples

 Integral transformation finished. Total CPU:   3.60 sec, npass=  1  Memory used:  24.61 MW

 Reference energy:                   -263.77622127

 Adding F12 terms to K(Cij), methodcc=6,  factor=1.0

 ITER.      SQ.NORM     CORR.ENERGY   TOTAL ENERGY   ENERGY CHANGE        DEN1      VAR(S)    VAR(P)  DIIS     TIME
   1      1.20145840    -0.86670738  -264.64292865     0.01842667     0.04675568  0.72D-02  0.54D-02  1  1    14.44
   2      1.21566354    -0.86260977  -264.63883104     0.00409761    -0.02006073  0.93D-04  0.58D-03  2  2    16.92
   3      1.22103368    -0.86274878  -264.63897005    -0.00013900    -0.00231930  0.14D-03  0.31D-04  3  3    19.45
   4      1.22387167    -0.86261522  -264.63883649     0.00013356    -0.00141101  0.86D-05  0.40D-05  4  4    22.08
   5      1.22493507    -0.86257933  -264.63880060     0.00003589    -0.00036699  0.79D-06  0.29D-06  5  5    24.61
   6      1.22511129    -0.86255150  -264.63877277     0.00002783    -0.00000756  0.60D-07  0.30D-07  6  6    27.13
   7      1.22514853    -0.86254841  -264.63876968     0.00000309    -0.00000692  0.80D-08  0.43D-08  6  2    29.67
   8      1.22515032    -0.86254800  -264.63876928     0.00000040     0.00000193  0.65D-09  0.43D-09  6  1    32.19
   9      1.22515084    -0.86254815  -264.63876942    -0.00000014     0.00000090  0.88D-10  0.38D-10  6  4    34.83

 Norm of t1 vector:      0.10749182      S-energy:     0.00000012      T1 diagnostic:  0.01551511
                                                                       D1 diagnostic:  0.04773259

 Adding energy correction from Wij-K(Fij), methodcc=6  factor=1.0
 
  CCSD correlation energy              -0.862548149208
  MP2-F12 correction (uncoupled)       -0.092754602232
  C*T doubles correction               -0.001488503298
  f12b correction                       0.015439579558


 Total CPU time for triples:     66.17 sec


 RESULTS
 =======

  Reference energy                   -263.760302018181
  F12 singles correction               -0.015919254535

 F12 singles corrections added to reference energy

  New reference energy               -263.776221272716

  F12a singlet correction              -0.080448412337
  F12a triplet correction              -0.013794693193
  F12a total correction                -0.094243105530

 F12a corrections for ansatz F12/3C(FIX) added to CCSD energy
 
  CCSD-F12a singlet pair energy        -0.641450444874
  CCSD-F12a triplet pair energy        -0.315340925822
  CCSD-F12a correlation energy         -0.956791254738

  Triples (T) contribution             -0.038251601601
  Total correlation energy             -0.995042856339

  CCSD-F12a total energy             -264.733012527454
  CCSD[T]-F12a energy                -264.773813774739
  CCSD-T-F12a energy                 -264.770345052221
 !CCSD(T)-F12a total energy          -264.771264129055

 F12b corrections for ansatz F12/3C(FIX) added to CCSD(T)-F12a energy

  CCSD-F12b singlet pair energy        -0.627263400566
  CCSD-F12b triplet pair energy        -0.314088390571
  CCSD-F12b correlation energy         -0.941351675179

  Triples (T) contribution             -0.038251601601
  Total correlation energy             -0.979603276781

  CCSD-F12b total energy             -264.717572947895
  CCSD[T]-F12b energy                -264.758374195180
  CCSD-T-F12b energy                 -264.754905472662
 !CCSD(T)-F12b total energy          -264.755824549496

 Timing summary (sec):

 STEP                 CPU(USER)    SYS     CPU(TOT)    WALL
 Transformation          3.63      0.46      4.09      4.09
 CCSD iterations        22.78      1.43     24.21     26.07
 Triples                66.17      1.44     67.61     67.57
 MP2-F12                 8.44      0.96      9.40      9.40
 F12b energy             1.65      0.04      1.69      1.70

 Program statistics:

 Available memory in ccsd:                99998934
 Min. memory needed in ccsd:               4458306
 Max. memory used in ccsd:                 5958390
 Max. memory used in cckext:               6352469 (10 integral passes)



 **********************************************************************************************************************************
 DATASETS  * FILE   NREC   LENGTH (MB)   RECORD NAMES
              1      20      269.66       500      610      700      900      950      970     1000      129      960     1100   
                                          VAR    BASINP    GEOM    SYMINP    ZMAT    AOBASIS   BASIS     P2S    ABASIS      S 
                                         1400     1410     1200     1210     1080     1600     1650     1700      960(1)  1380   
                                           T        V       H0       H01     AOSYM     SMH    MOLCAS    OPER    ABASIS    JKOP   

              2       5        1.55       700     1000     2100     7360     7350   
                                         GEOM     BASIS     RHF    F12ABS    EF12   

 PROGRAMS   *        TOTAL   CCSD(T)        HF       INT
 CPU TIMES  *       114.90    102.82      3.72      8.29
 REAL TIME  *       122.68 SEC
 DISK USED  *         3.34 GB      
 SF USED    *         1.53 GB      
 GA USED    *         2.40 MB       (max)       0.00 MB       (current)
 **********************************************************************************************************************************

     CCSD(T)-F12        HF-SCF  
   -264.75582455   -263.76030202
 **********************************************************************************************************************************
 Variable memory released
