
 Primary working directories    : /scratch/kee
 Secondary working directories  : /scratch/kee
 Wavefunction directory         : /home/kee/wfu/
 Main file repository           : /scratch/kee/

 ARCHNAME  : Linux/x86_64
 FC        : /opt/intel/composer_xe_2015.0.090/bin/intel64/ifort
 FCVERSION : 15.0.0
 BLASLIB   : -L/opt/intel/mkl/lib/intel64 -lmkl_intel_ilp64 -lmkl_sequential -lmkl_core
 id        : emory

 Nodes     nprocs
 node4        3
 Number of processes for MPI-2 version of Molpro:   nprocs(total)=    4   nprocs(compute)=    3   nprocs(helper)=    1
 ga_uses_ma=false, calling ma_init with nominal heap.
 GA-space will be limited to   8.0 MW (determined by -G option)

 Using customized tuning parameters: mindgm=7; mindgv=32; mindgc=1; mindgr=1; noblas=0; mincuda=1000; minvec=7
 default implementation of scratch files=sf  

 ***,co2h2o
 memory,100,m
 basis avtz
 geomtype = xyz
 geometry = {
 6
       0.00000000
 O     0.00351000    1.16210700    0.00000000
 O     0.00351000   -1.16210700    0.00000000
 O     2.66968000    0.00000000    0.00000000
 H     3.25589800    0.00000000    0.75853100
 H     3.25589800    0.00000000   -0.75853100
 C     0.01968000    0.00000000    0.00000000
 }
 hf
 ccsd(t)-f12
 ---

 Variables initialized (665), CPU time= 0.00 sec
 Commands  initialized (462), CPU time= 0.01 sec, 486 directives.
 Default parameters read. Elapsed time= 0.03 sec

 Checking input...
 Passed
1


                                         ***  PROGRAM SYSTEM MOLPRO  ***
                         Copyright, University College Cardiff Consultants Limited, 2008

                                    Version 2010.1 linked 9 Dec 2014 15:06:28 


 **********************************************************************************************************************************
 LABEL *   co2h2o                                                                        
 Linux-2.6.32-504.el6.x86_64/node4(x86_64) 64 bit mpp version                            DATE: 12-Dec-16          TIME: 15:06:35  
 **********************************************************************************************************************************

 Patch level:      19
 **********************************************************************************************************************************

 Variable memory set to  100000000 words,  buffer space   230000 words

 SETTING BASIS          =    AVTZ
 SETTING GEOMTYPE       =    XYZ

Geometry recognized as XYZ



 Recomputing integrals since basis changed


 Using spherical harmonics

 Library entry O      S aug-cc-pVTZ          selected for orbital group  1
 Library entry O      P aug-cc-pVTZ          selected for orbital group  1
 Library entry O      D aug-cc-pVTZ          selected for orbital group  1
 Library entry O      F aug-cc-pVTZ          selected for orbital group  1
 Library entry H      S aug-cc-pVTZ          selected for orbital group  2
 Library entry H      P aug-cc-pVTZ          selected for orbital group  2
 Library entry H      D aug-cc-pVTZ          selected for orbital group  2
 Library entry C      S aug-cc-pVTZ          selected for orbital group  3
 Library entry C      P aug-cc-pVTZ          selected for orbital group  3
 Library entry C      D aug-cc-pVTZ          selected for orbital group  3
 Library entry C      F aug-cc-pVTZ          selected for orbital group  3

1PROGRAM * SEWARD (Integral evaluation for generally contracted gaussian basis sets)     Author: Roland Lindh, 1990

 Geometry written to block  1 of record 700


 Point group  C2v 



 ATOMIC COORDINATES

 NR  ATOM    CHARGE       X              Y              Z

   1  O       8.00    0.006632939    2.196063965    0.000000000
   2  O       8.00    0.006632939   -2.196063965    0.000000000
   3  O       8.00    5.044964059    0.000000000    0.000000000
   4  H       1.00    6.152755532    0.000000000    1.433415852
   5  H       1.00    6.152755532    0.000000000   -1.433415852
   6  C       6.00    0.037189810    0.000000000    0.000000000

 Bond lengths in Bohr (Angstrom)

 1-6  2.196276545  2-6  2.196276545  3-4  1.811596797  3-5  1.811596797
     (1.162219492)     (1.162219492)     (0.958655737)     (0.958655737)

 Bond angles

  1-6-2  178.40563223   4-3-5  104.60391356

 NUCLEAR CHARGE:                   32
 NUMBER OF PRIMITIVE AOS:         322
 NUMBER OF SYMMETRY AOS:          282
 NUMBER OF CONTRACTIONS:          230   (  84A1  +  59B1  +  54B2  +  33A2  )
 NUMBER OF CORE ORBITALS:           4   (   3A1  +   1B1  +   0B2  +   0A2  )
 NUMBER OF VALENCE ORBITALS:       18   (   8A1  +   5B1  +   4B2  +   1A2  )


 NUCLEAR REPULSION ENERGY  107.03612056


 Eigenvalues of metric

         1 0.206E-03 0.299E-03 0.668E-03 0.868E-03 0.161E-02 0.287E-02 0.316E-02 0.324E-02
         2 0.337E-03 0.806E-03 0.172E-02 0.312E-02 0.426E-02 0.648E-02 0.123E-01 0.198E-01
         3 0.307E-03 0.152E-02 0.307E-02 0.377E-02 0.612E-02 0.741E-02 0.122E-01 0.135E-01
         4 0.346E-02 0.119E-01 0.293E-01 0.351E-01 0.541E-01 0.688E-01 0.998E-01 0.138E+00


 Contracted 2-electron integrals neglected if value below      1.0D-11
 AO integral compression algorithm  1   Integral accuracy      1.0D-11

     408.945 MB (compressed) written to integral file ( 45.8%)

     Node minimum: 128.188 MB, node maximum: 149.946 MB


 NUMBER OF SORTED TWO-ELECTRON INTEGRALS:   29979201.     BUFFER LENGTH:  32768
 NUMBER OF SEGMENTS:   2  SEGMENT LENGTH:   15996954      RECORD LENGTH: 524288

 Memory used in sort:      16.55 MW

 SORT1 READ   111555100. AND WROTE    27830607. INTEGRALS IN     80 RECORDS. CPU TIME:     2.71 SEC, REAL TIME:     3.19 SEC
 SORT2 READ    83485396. AND WROTE    89930217. INTEGRALS IN   1497 RECORDS. CPU TIME:     0.88 SEC, REAL TIME:     1.21 SEC

 Node minimum:    29974277.  Node maximum:    29979201. integrals

 OPERATOR DM      FOR CENTER  0  COORDINATES:    0.000000    0.000000    0.000000


 **********************************************************************************************************************************
 DATASETS  * FILE   NREC   LENGTH (MB)   RECORD NAMES
              1      18        3.23       500      610      700      900      950      970     1000      129      960     1100   
                                          VAR    BASINP    GEOM    SYMINP    ZMAT    AOBASIS   BASIS     P2S    ABASIS      S 
                                         1400     1410     1200     1210     1080     1600     1650     1700   
                                           T        V       H0       H01     AOSYM     SMH    MOLCAS    OPER   

 PROGRAMS   *        TOTAL       INT
 CPU TIMES  *         6.12      6.04
 REAL TIME  *         7.18 SEC
 DISK USED  *         1.40 GB      
 GA USED    *         0.00 MB       (max)       0.00 MB       (current)
 **********************************************************************************************************************************

1PROGRAM * RHF-SCF (CLOSED SHELL)       Authors: W. Meyer, H.-J. Werner


 NUMBER OF ELECTRONS:      16+   16-
 CONVERGENCE THRESHOLDS:    1.00E-05 (Density)    1.00E-07 (Energy)
 MAX. NUMBER OF ITERATIONS:       60
 INTERPOLATION TYPE:            DIIS
 INTERPOLATION STEPS:              2 (START)      1 (STEP)
 LEVEL SHIFTS:                  0.00 (CLOSED)  0.00 (OPEN) 



 Orbital guess generated from atomic densities. Full valence occupancy:   11   6   4   1

 Molecular orbital dump at record        2100.2

 Initial alpha occupancy:   8   5   2   1
 Initial beta  occupancy:   8   5   2   1
 Wave function symmetry:    1

 ITERATION    DDIFF          GRAD             ENERGY        2-EL.EN.            DIPOLE MOMENTS         DIIS
    1      0.000D+00      0.000D+00      -263.66597621    410.621103    1.23650    0.00000    0.00000    0
    2      0.000D+00      0.868D-02      -263.72956955    405.879387    0.91554    0.00000    0.00000    1
    3      0.140D-01      0.576D-02      -263.76884598    408.316462    0.96794    0.00000    0.00000    2
    4      0.566D-02      0.574D-03      -263.76934926    408.153680    0.96617    0.00000    0.00000    3
    5      0.704D-03      0.173D-03      -263.76940918    408.132201    0.96085    0.00000    0.00000    4
    6      0.267D-03      0.706D-04      -263.76941719    408.151210    0.96149    0.00000    0.00000    5
    7      0.888D-04      0.158D-04      -263.76941794    408.142667    0.96110    0.00000    0.00000    6
    8      0.293D-04      0.352D-05      -263.76941799    408.144113    0.96114    0.00000    0.00000    7
    9      0.747D-05      0.119D-05      -263.76941799    408.143843    0.96112    0.00000    0.00000    0

 Final occupancy:   8   5   2   1

 !RHF STATE 1.1 Energy               -263.769417990834
 Nuclear energy                       107.03612056
 One-electron energy                 -574.87745989
 Two-electron energy                  204.07192134
 Virial quotient                       -1.00169143
 !RHF STATE 1.1 Dipole moment           0.96111892     0.00000000     0.00000000
 Dipole moment /Debye                   2.44276062     0.00000000     0.00000000

 Orbital energies:

         1.1          2.1          3.1          4.1          5.1          6.1          7.1          8.1          9.1         10.1
    -20.626359   -20.578879   -11.437509    -1.505210    -1.367040    -0.776890    -0.695978    -0.595528     0.024294     0.066666

         1.2          2.2          3.2          4.2          5.2          6.2          7.2
    -20.626404    -1.452200    -0.719281    -0.533877    -0.510861     0.086834     0.165621

         1.3          2.3          3.3          4.3
     -0.731311    -0.689747     0.044959     0.091725

         1.4          2.4          3.4
     -0.519735     0.170184     0.272469


 **********************************************************************************************************************************
 DATASETS  * FILE   NREC   LENGTH (MB)   RECORD NAMES
              1      18        3.25       500      610      700      900      950      970     1000      129      960     1100   
                                          VAR    BASINP    GEOM    SYMINP    ZMAT    AOBASIS   BASIS     P2S    ABASIS      S 
                                         1400     1410     1200     1210     1080     1600     1650     1700   
                                           T        V       H0       H01     AOSYM     SMH    MOLCAS    OPER   

              2       3        0.67       700     1000     2100   
                                         GEOM     BASIS     RHF  

 PROGRAMS   *        TOTAL        HF       INT
 CPU TIMES  *         7.48      1.36      6.04
 REAL TIME  *         8.69 SEC
 DISK USED  *         1.41 GB      
 SF USED    *         0.06 MB      
 GA USED    *         0.00 MB       (max)       0.00 MB       (current)
 **********************************************************************************************************************************


1PROGRAM * CCSD (Closed-shell coupled cluster)     Authors: C. Hampel, H.-J. Werner, 1991, M. Deegan, P.J. Knowles, 1992

                                  CCSD-F12 implementation by  H.-J. Werner, 2007

                   Density fitting integral evaluation by F.R. Manby, 2003,2007, G. Knizia, 2010

 Basis set CC-PVTZ/JKFIT generated.      Number of basis functions:   376 
 Basis set AUG-CC-PVTZ/MP2FIT generated. Number of basis functions:   516 

 Convergence thresholds:  THRVAR = 1.00D-08  THRDEN = 1.00D-06

 CCSD(T)     terms to be evaluated (factor= 1.000)


 Number of core orbitals:           4 (   3   1   0   0 )
 Number of closed-shell orbitals:  12 (   5   4   2   1 )
 Number of external orbitals:     214 (  76  54  52  32 )

 Molecular orbitals read from record     2100.2  Type=RHF/CANONICAL (state 1.1)

 MP2-F12 correlation treatment (H.-J. Werner, 2006)
 --------------------------------------------------

 Using MP2-F12 with ansatz 3C(FIX)

 Using projected zeroth-order Hamiltonian (+Z)

 FOCKRIB=T FOCKRIC=T FOCKRIP=T CABSP=T CABSA=T CABSK=T CABSF=T GBC=F EBC=F DMAT=T NOFIK=T NOPAO=1 SOLVE=-1  USEPAO=0
 EXCH_A= T EXCH_B= F EXCH_C= F EXCH_P= F
 
 Geminal basis:    OPTFULL  GEM_TYPE=SLATER  BETA=1.0  NGEM=6

 Optimizing Gaussian exponents for each gem_beta

 Geminal optimization for beta= 1.0000
 Weight function:   m=0, omega= 1.4646

 Augmented Hessian optimization of geminal fit. Trust ratio= 0.40000
 Convergence reached after   2 iterations. Final gradient= 8.24D-16, Step= 4.32D-06, Delta= 1.28D-09
 
 Alpha:                 0.19532     0.81920     2.85917     9.50073    35.69989   197.79328
 Coeff:                 0.27070     0.30552     0.18297     0.10986     0.06810     0.04224
 

 Symmetry turned off. Reference energy:       -263.769417990834

 All pairs explicitly correlated. Number of r12-pairs:           78
 
 AO(A)-basis ORBITAL           loaded. Number of functions:     230
 RI(R)-basis CC-PVTZ/JKFIT     loaded. Number of functions:     376
 DF-basis CC-PVTZ/JKFIT        loaded. Number of functions:     376

 Screening thresholds:   THRAO=  1.00D-10  THRMO=  1.00D-09  THRPROD=  1.00D-09
                         THRSW=  1.00D-05  THROV=  1.00D-12  THRF12=   1.00D-08

 CPU time for Fock operators                      1.04 sec
 
 Construction of ABS:
 Smallest eigenvalue of S          2.47E-04  (threshold= 1.00E-08)
 Ratio eigmin/eigmax               1.76E-06  (threshold= 1.00E-09)
 Smallest eigenvalue of S kept     2.47E-04  (threshold= 2.47E-04, 0 functions deleted, 376 kept)
 
 Construction of CABS:
 Smallest eigenvalue of S          2.26E-08  (threshold= 1.00E-08)
 Ratio eigmin/eigmax               2.26E-08  (threshold= 1.00E-09)
 Smallest eigenvalue of S kept     2.26E-08  (threshold= 2.26E-08, 0 functions deleted, 376 kept)
 
 CPU time for CABS singles                        0.17 sec

 CABS-singles contribution of  -0.01595194 patched into reference energy.
 New reference energy        -263.78536993
 
 AO(A)-basis ORBITAL           loaded. Number of functions:     230
 RI(R)-basis CC-PVTZ/JKFIT     loaded. Number of functions:     376
 DF-basis AUG-CC-PVTZ/MP2FIT   loaded. Number of functions:     516

 Screening thresholds:   THRAO=  1.00D-10  THRMO=  1.00D-09  THRPROD=  1.00D-09
                         THRSW=  1.00D-05  THROV=  1.00D-12  THRF12=   1.00D-08

 CPU time for 3-index integral evaluation         3.20 sec
 CPU time for first  half transformation          0.28 sec (10301.8 MFLOP/sec)
 CPU time for second half transformation          0.04 sec ( 2576.7 MFLOP/sec)
 CPU time for sorting                             0.19 sec
 CPU time for fitting                             0.06 sec (23217.5 MFLOP/sec)
 CPU time for tilde quantities                    0.06 sec (30814.7 MFLOP/sec)
 CPU time for assembly                            0.82 sec (28769.0 MFLOP/sec)
 CPU time for tranop_f12                          0.92 sec (32628.6 MFLOP/sec)
 CPU time for f12 integrals (total)               7.76 sec
 F12-matrices built in  3 passes.
 F12-matrices built in  3 passes.
 F12-matrices built in  3 passes.
 F12-matrices built in  3 passes.
 FC-matrix built in  3 passes.
 CPU time for f12 matrices (total)                0.53 sec

 Diagonal F12 approximation with fixed coefficients:  TSING= 0.500,  TTRIP= 0.250 (scaled by -1/beta)

 DF-MP2-F12 energy corrections:
 ------------------------------
 Approx.                                    Singlet             Triplet             Total
 DF-MP2-F12/3*C(DX,FIX)                -0.097361677798     -0.017013747955     -0.114375425753
 DF-MP2-F12/3*C(FIX)                   -0.079772146853     -0.013496839648     -0.093268986501
 DF-MP2-F12/3C(FIX)                    -0.080144949351     -0.013536386248     -0.093681335599

 DF-MP2-F12 correlation energies:
 --------------------------------
 Approx.                                    Singlet             Triplet             Ecorr            Total Energy
 DF-MP2                                -0.538039654968     -0.345037675632     -0.883077330600   -264.668447256738
 DF-MP2-F12/3*C(DX,FIX)                -0.635401332766     -0.362051423587     -0.997452756353   -264.782822682491
 DF-MP2-F12/3*C(FIX)                   -0.617811801821     -0.358534515280     -0.976346317101   -264.761716243238
 DF-MP2-F12/3C(FIX)                    -0.618184604319     -0.358574061880     -0.976758666199   -264.762128592337

 SCS-DF-MP2 energies (F_SING= 1.20000  F_TRIP= 0.62222  F_PARALLEL= 0.33333):
 ----------------------------------------------------------------------------
 SCS-DF-MP2                            -0.860337695244   -264.645707621381
 SCS-DF-MP2-F12/3*C(DX,FIX)            -0.987758040663   -264.773127966800
 SCS-DF-MP2-F12/3*C(FIX)               -0.964462305026   -264.749832231163
 SCS-DF-MP2-F12/3C(FIX)                -0.964934274797   -264.750304200935

 Symmetry restored.
 Symmetry transformation completed.

 Number of N-1 electron functions:              12
 Number of N-2 electron functions:              78
 Number of singly external CSFs:               732
 Number of doubly external CSFs:            836016
 Total number of CSFs:                      836749

 Pair and operator lists are different

 Length of J-op  integral file:             462.26 MB
 Length of K-op  integral file:             502.03 MB
 Length of 3-ext integral record:             0.00 MB

 Memory could be reduced to 38.69 Mwords without degradation in triples

 Integral transformation finished. Total CPU:   0.78 sec, npass=  1  Memory used:   6.07 MW

 Reference energy:                   -263.78536993

 Adding F12 terms to K(Cij), methodcc=6,  factor=1.0

 ITER.      SQ.NORM     CORR.ENERGY   TOTAL ENERGY   ENERGY CHANGE        DEN1      VAR(S)    VAR(P)  DIIS     TIME
   1      1.20212574    -0.86487957  -264.65024950     0.01820989     0.04677441  0.72D-02  0.55D-02  1  1    11.36
   2      1.21648540    -0.86071213  -264.64608206     0.00416744    -0.02020970  0.89D-04  0.59D-03  2  2    11.71
   3      1.22184668    -0.86083063  -264.64620056    -0.00011850    -0.00231456  0.13D-03  0.32D-04  3  3    12.63
   4      1.22467637    -0.86070088  -264.64607080     0.00012975    -0.00141604  0.80D-05  0.41D-05  4  4    13.65
   5      1.22572241    -0.86066417  -264.64603409     0.00003671    -0.00036632  0.63D-06  0.29D-06  5  5    14.68
   6      1.22589041    -0.86063693  -264.64600686     0.00002723    -0.00000807  0.46D-07  0.25D-07  6  6    15.70
   7      1.22592325    -0.86063409  -264.64600401     0.00000285    -0.00000680  0.38D-08  0.40D-08  6  2    16.73
   8      1.22592391    -0.86063382  -264.64600375     0.00000027     0.00000207  0.46D-09  0.32D-09  6  1    17.75
   9      1.22592457    -0.86063388  -264.64600381    -0.00000006     0.00000065  0.47D-10  0.26D-10  6  4    18.67

 Norm of t1 vector:      0.10680854      S-energy:     0.00000002      T1 diagnostic:  0.01541648
                                                                       D1 diagnostic:  0.04621331

 Adding energy correction from Wij-K(Fij), methodcc=6  factor=1.0
 
  CCSD correlation energy              -0.860633884049
  MP2-F12 correction (uncoupled)       -0.092521055757
  C*T doubles correction               -0.001470247844
  f12b correction                       0.015418399832


 Total CPU time for triples:     26.06 sec


 RESULTS
 =======

  Reference energy                   -263.769417990834
  F12 singles correction               -0.015951935303

 F12 singles corrections added to reference energy

  New reference energy               -263.785369926138

  F12a singlet correction              -0.080344501288
  F12a triplet correction              -0.013646802313
  F12a total correction                -0.093991303601

 F12a corrections for ansatz F12/3C(FIX) added to CCSD energy
 
  CCSD-F12a singlet pair energy        -0.641830288595
  CCSD-F12a triplet pair energy        -0.312794917219
  CCSD-F12a correlation energy         -0.954625187650

  Triples (T) contribution             -0.038042348835
  Total correlation energy             -0.992667536485

  CCSD-F12a total energy             -264.739995113788
  CCSD[T]-F12a energy                -264.780586945937
  CCSD-T-F12a energy                 -264.777105958747
 !CCSD(T)-F12a total energy          -264.778037462623

 F12b corrections for ansatz F12/3C(FIX) added to CCSD(T)-F12a energy

  CCSD-F12b singlet pair energy        -0.627647971235
  CCSD-F12b triplet pair energy        -0.311558834747
  CCSD-F12b correlation energy         -0.939206787818

  Triples (T) contribution             -0.038042348835
  Total correlation energy             -0.977249136653

  CCSD-F12b total energy             -264.724576713956
  CCSD[T]-F12b energy                -264.765168546106
  CCSD-T-F12b energy                 -264.761687558915
 !CCSD(T)-F12b total energy          -264.762619062791

 Timing summary (sec):

 STEP                 CPU(USER)    SYS     CPU(TOT)    WALL
 Transformation          0.78      2.28      3.06      4.14
 CCSD iterations         7.99      1.78      9.77     11.29
 Triples                26.06      1.26     27.32     28.32
 MP2-F12                 9.91      1.34     11.25     11.31
 F12b energy             0.59      0.05      0.64      0.63

 Program statistics:

 Available memory in ccsd:                99998934
 Min. memory needed in ccsd:               2244783
 Max. memory used in ccsd:                 3005571
 Max. memory used in cckext:               2769663 (10 integral passes)



 **********************************************************************************************************************************
 DATASETS  * FILE   NREC   LENGTH (MB)   RECORD NAMES
              1      20      137.19       500      610      700      900      950      970     1000      129      960     1100   
                                          VAR    BASINP    GEOM    SYMINP    ZMAT    AOBASIS   BASIS     P2S    ABASIS      S 
                                         1400     1410     1200     1210     1080     1600     1650     1700      960(1)  1380   
                                           T        V       H0       H01     AOSYM     SMH    MOLCAS    OPER    ABASIS    JKOP   

              2       5        0.97       700     1000     2100     7360     7350   
                                         GEOM     BASIS     RHF    F12ABS    EF12   

 PROGRAMS   *        TOTAL   CCSD(T)        HF       INT
 CPU TIMES  *        52.85     45.36      1.36      6.04
 REAL TIME  *        64.67 SEC
 DISK USED  *         1.64 GB      
 SF USED    *         1.34 GB      
 GA USED    *         2.40 MB       (max)       0.00 MB       (current)
 **********************************************************************************************************************************

     CCSD(T)-F12        HF-SCF  
   -264.76261906   -263.76941799
 **********************************************************************************************************************************
 Variable memory released
