
 Primary working directories    : /scratch/kee
 Secondary working directories  : /scratch/kee
 Wavefunction directory         : /home/kee/wfu/
 Main file repository           : /scratch/kee/

 ARCHNAME  : Linux/x86_64
 FC        : /opt/intel/composer_xe_2015.0.090/bin/intel64/ifort
 FCVERSION : 15.0.0
 BLASLIB   : -L/opt/intel/mkl/lib/intel64 -lmkl_intel_ilp64 -lmkl_sequential -lmkl_core
 id        : emory

 Nodes     nprocs
 node4        3
 Number of processes for MPI-2 version of Molpro:   nprocs(total)=    4   nprocs(compute)=    3   nprocs(helper)=    1
 ga_uses_ma=false, calling ma_init with nominal heap.
 GA-space will be limited to   8.0 MW (determined by -G option)

 Using customized tuning parameters: mindgm=7; mindgv=32; mindgc=1; mindgr=1; noblas=0; mincuda=1000; minvec=7
 default implementation of scratch files=sf  

 ***,co2h2o
 memory,100,m
 basis avtz
 geomtype = xyz
 geometry = {
 6
       0.00000000
 O     0.00351000    1.16210700    0.00000000
 O     0.00351000   -1.16210700    0.00000000
 O     2.56968000    0.00000000    0.00000000
 H     3.15589800    0.00000000    0.75853100
 H     3.15589800    0.00000000   -0.75853100
 C     0.01968000    0.00000000    0.00000000
 }
 hf
 ccsd(t)-f12
 ---

 Variables initialized (665), CPU time= 0.01 sec
 Commands  initialized (462), CPU time= 0.00 sec, 486 directives.
 Default parameters read. Elapsed time= 0.03 sec

 Checking input...
 Passed
1


                                         ***  PROGRAM SYSTEM MOLPRO  ***
                         Copyright, University College Cardiff Consultants Limited, 2008

                                    Version 2010.1 linked 9 Dec 2014 15:06:28 


 **********************************************************************************************************************************
 LABEL *   co2h2o                                                                        
 Linux-2.6.32-504.el6.x86_64/node4(x86_64) 64 bit mpp version                            DATE: 12-Dec-16          TIME: 15:03:50  
 **********************************************************************************************************************************

 Patch level:      19
 **********************************************************************************************************************************

 Variable memory set to  100000000 words,  buffer space   230000 words

 SETTING BASIS          =    AVTZ
 SETTING GEOMTYPE       =    XYZ

Geometry recognized as XYZ



 Recomputing integrals since basis changed


 Using spherical harmonics

 Library entry O      S aug-cc-pVTZ          selected for orbital group  1
 Library entry O      P aug-cc-pVTZ          selected for orbital group  1
 Library entry O      D aug-cc-pVTZ          selected for orbital group  1
 Library entry O      F aug-cc-pVTZ          selected for orbital group  1
 Library entry H      S aug-cc-pVTZ          selected for orbital group  2
 Library entry H      P aug-cc-pVTZ          selected for orbital group  2
 Library entry H      D aug-cc-pVTZ          selected for orbital group  2
 Library entry C      S aug-cc-pVTZ          selected for orbital group  3
 Library entry C      P aug-cc-pVTZ          selected for orbital group  3
 Library entry C      D aug-cc-pVTZ          selected for orbital group  3
 Library entry C      F aug-cc-pVTZ          selected for orbital group  3

1PROGRAM * SEWARD (Integral evaluation for generally contracted gaussian basis sets)     Author: Roland Lindh, 1990

 Geometry written to block  1 of record 700


 Point group  C2v 



 ATOMIC COORDINATES

 NR  ATOM    CHARGE       X              Y              Z

   1  O       8.00    0.006632939    2.196063965    0.000000000
   2  O       8.00    0.006632939   -2.196063965    0.000000000
   3  O       8.00    4.855991445    0.000000000    0.000000000
   4  H       1.00    5.963782919    0.000000000    1.433415852
   5  H       1.00    5.963782919    0.000000000   -1.433415852
   6  C       6.00    0.037189810    0.000000000    0.000000000

 Bond lengths in Bohr (Angstrom)

 1-6  2.196276545  2-6  2.196276545  3-4  1.811596797  3-5  1.811596797
     (1.162219492)     (1.162219492)     (0.958655737)     (0.958655737)

 Bond angles

  1-6-2  178.40563223   4-3-5  104.60391356

 NUCLEAR CHARGE:                   32
 NUMBER OF PRIMITIVE AOS:         322
 NUMBER OF SYMMETRY AOS:          282
 NUMBER OF CONTRACTIONS:          230   (  84A1  +  59B1  +  54B2  +  33A2  )
 NUMBER OF CORE ORBITALS:           4   (   3A1  +   1B1  +   0B2  +   0A2  )
 NUMBER OF VALENCE ORBITALS:       18   (   8A1  +   5B1  +   4B2  +   1A2  )


 NUCLEAR REPULSION ENERGY  108.35269125


 Eigenvalues of metric

         1 0.185E-03 0.288E-03 0.584E-03 0.860E-03 0.155E-02 0.281E-02 0.308E-02 0.319E-02
         2 0.335E-03 0.796E-03 0.171E-02 0.309E-02 0.413E-02 0.642E-02 0.119E-01 0.194E-01
         3 0.299E-03 0.151E-02 0.305E-02 0.372E-02 0.611E-02 0.721E-02 0.120E-01 0.134E-01
         4 0.346E-02 0.118E-01 0.292E-01 0.347E-01 0.539E-01 0.687E-01 0.981E-01 0.137E+00


 Contracted 2-electron integrals neglected if value below      1.0D-11
 AO integral compression algorithm  1   Integral accuracy      1.0D-11

     415.760 MB (compressed) written to integral file ( 46.6%)

     Node minimum: 130.548 MB, node maximum: 152.044 MB


 NUMBER OF SORTED TWO-ELECTRON INTEGRALS:   29979201.     BUFFER LENGTH:  32768
 NUMBER OF SEGMENTS:   2  SEGMENT LENGTH:   15996954      RECORD LENGTH: 524288

 Memory used in sort:      16.55 MW

 SORT1 READ   111555100. AND WROTE    28109138. INTEGRALS IN     82 RECORDS. CPU TIME:     2.72 SEC, REAL TIME:     3.07 SEC
 SORT2 READ    84334516. AND WROTE    89930217. INTEGRALS IN   1524 RECORDS. CPU TIME:     1.07 SEC, REAL TIME:     3.74 SEC

 Node minimum:    29974277.  Node maximum:    29979201. integrals

 OPERATOR DM      FOR CENTER  0  COORDINATES:    0.000000    0.000000    0.000000


 **********************************************************************************************************************************
 DATASETS  * FILE   NREC   LENGTH (MB)   RECORD NAMES
              1      18        3.23       500      610      700      900      950      970     1000      129      960     1100   
                                          VAR    BASINP    GEOM    SYMINP    ZMAT    AOBASIS   BASIS     P2S    ABASIS      S 
                                         1400     1410     1200     1210     1080     1600     1650     1700   
                                           T        V       H0       H01     AOSYM     SMH    MOLCAS    OPER   

 PROGRAMS   *        TOTAL       INT
 CPU TIMES  *         6.31      6.24
 REAL TIME  *         9.51 SEC
 DISK USED  *         1.42 GB      
 GA USED    *         0.00 MB       (max)       0.00 MB       (current)
 **********************************************************************************************************************************

1PROGRAM * RHF-SCF (CLOSED SHELL)       Authors: W. Meyer, H.-J. Werner


 NUMBER OF ELECTRONS:      16+   16-
 CONVERGENCE THRESHOLDS:    1.00E-05 (Density)    1.00E-07 (Energy)
 MAX. NUMBER OF ITERATIONS:       60
 INTERPOLATION TYPE:            DIIS
 INTERPOLATION STEPS:              2 (START)      1 (STEP)
 LEVEL SHIFTS:                  0.00 (CLOSED)  0.00 (OPEN) 



 Orbital guess generated from atomic densities. Full valence occupancy:   11   6   4   1

 Molecular orbital dump at record        2100.2

 Initial alpha occupancy:   8   5   2   1
 Initial beta  occupancy:   8   5   2   1
 Wave function symmetry:    1

 ITERATION    DDIFF          GRAD             ENERGY        2-EL.EN.            DIPOLE MOMENTS         DIIS
    1      0.000D+00      0.000D+00      -263.66491631    413.324465    1.25300    0.00000    0.00000    0
    2      0.000D+00      0.866D-02      -263.72843100    408.579338    0.94278    0.00000    0.00000    1
    3      0.140D-01      0.574D-02      -263.76731668    410.990551    0.98723    0.00000    0.00000    2
    4      0.565D-02      0.576D-03      -263.76782404    410.837338    0.98437    0.00000    0.00000    3
    5      0.707D-03      0.175D-03      -263.76788472    410.811761    0.97874    0.00000    0.00000    4
    6      0.269D-03      0.712D-04      -263.76789287    410.831409    0.97929    0.00000    0.00000    5
    7      0.892D-04      0.157D-04      -263.76789362    410.822919    0.97888    0.00000    0.00000    6
    8      0.295D-04      0.350D-05      -263.76789367    410.824391    0.97893    0.00000    0.00000    7
    9      0.741D-05      0.119D-05      -263.76789367    410.824107    0.97891    0.00000    0.00000    0

 Final occupancy:   8   5   2   1

 !RHF STATE 1.1 Energy               -263.767893670224
 Nuclear energy                       108.35269125
 One-electron energy                 -577.53263857
 Two-electron energy                  205.41205365
 Virial quotient                       -1.00162512
 !RHF STATE 1.1 Dipole moment           0.97890930     0.00000000     0.00000000
 Dipole moment /Debye                   2.48797629     0.00000000     0.00000000

 Orbital energies:

         1.1          2.1          3.1          4.1          5.1          6.1          7.1          8.1          9.1         10.1
    -20.624088   -20.579562   -11.435889    -1.503492    -1.368625    -0.775287    -0.697489    -0.594245     0.023940     0.067276

         1.2          2.2          3.2          4.2          5.2          6.2          7.2
    -20.624133    -1.450384    -0.717576    -0.536573    -0.508264     0.086788     0.165282

         1.3          2.3          3.3          4.3
     -0.732894    -0.687884     0.044806     0.092306

         1.4          2.4          3.4
     -0.517881     0.170201     0.273320


 **********************************************************************************************************************************
 DATASETS  * FILE   NREC   LENGTH (MB)   RECORD NAMES
              1      18        3.25       500      610      700      900      950      970     1000      129      960     1100   
                                          VAR    BASINP    GEOM    SYMINP    ZMAT    AOBASIS   BASIS     P2S    ABASIS      S 
                                         1400     1410     1200     1210     1080     1600     1650     1700   
                                           T        V       H0       H01     AOSYM     SMH    MOLCAS    OPER   

              2       3        0.67       700     1000     2100   
                                         GEOM     BASIS     RHF  

 PROGRAMS   *        TOTAL        HF       INT
 CPU TIMES  *         7.68      1.37      6.24
 REAL TIME  *        12.95 SEC
 DISK USED  *         1.44 GB      
 SF USED    *         0.06 MB      
 GA USED    *         0.00 MB       (max)       0.00 MB       (current)
 **********************************************************************************************************************************


1PROGRAM * CCSD (Closed-shell coupled cluster)     Authors: C. Hampel, H.-J. Werner, 1991, M. Deegan, P.J. Knowles, 1992

                                  CCSD-F12 implementation by  H.-J. Werner, 2007

                   Density fitting integral evaluation by F.R. Manby, 2003,2007, G. Knizia, 2010

 Basis set CC-PVTZ/JKFIT generated.      Number of basis functions:   376 
 Basis set AUG-CC-PVTZ/MP2FIT generated. Number of basis functions:   516 

 Convergence thresholds:  THRVAR = 1.00D-08  THRDEN = 1.00D-06

 CCSD(T)     terms to be evaluated (factor= 1.000)


 Number of core orbitals:           4 (   3   1   0   0 )
 Number of closed-shell orbitals:  12 (   5   4   2   1 )
 Number of external orbitals:     214 (  76  54  52  32 )

 Molecular orbitals read from record     2100.2  Type=RHF/CANONICAL (state 1.1)

 MP2-F12 correlation treatment (H.-J. Werner, 2006)
 --------------------------------------------------

 Using MP2-F12 with ansatz 3C(FIX)

 Using projected zeroth-order Hamiltonian (+Z)

 FOCKRIB=T FOCKRIC=T FOCKRIP=T CABSP=T CABSA=T CABSK=T CABSF=T GBC=F EBC=F DMAT=T NOFIK=T NOPAO=1 SOLVE=-1  USEPAO=0
 EXCH_A= T EXCH_B= F EXCH_C= F EXCH_P= F
 
 Geminal basis:    OPTFULL  GEM_TYPE=SLATER  BETA=1.0  NGEM=6

 Optimizing Gaussian exponents for each gem_beta

 Geminal optimization for beta= 1.0000
 Weight function:   m=0, omega= 1.4646

 Augmented Hessian optimization of geminal fit. Trust ratio= 0.40000
 Convergence reached after   2 iterations. Final gradient= 8.24D-16, Step= 4.32D-06, Delta= 1.28D-09
 
 Alpha:                 0.19532     0.81920     2.85917     9.50073    35.69989   197.79328
 Coeff:                 0.27070     0.30552     0.18297     0.10986     0.06810     0.04224
 

 Symmetry turned off. Reference energy:       -263.767893670224

 All pairs explicitly correlated. Number of r12-pairs:           78
 
 AO(A)-basis ORBITAL           loaded. Number of functions:     230
 RI(R)-basis CC-PVTZ/JKFIT     loaded. Number of functions:     376
 DF-basis CC-PVTZ/JKFIT        loaded. Number of functions:     376

 Screening thresholds:   THRAO=  1.00D-10  THRMO=  1.00D-09  THRPROD=  1.00D-09
                         THRSW=  1.00D-05  THROV=  1.00D-12  THRF12=   1.00D-08

 CPU time for Fock operators                      1.06 sec
 
 Construction of ABS:
 Smallest eigenvalue of S          2.44E-04  (threshold= 1.00E-08)
 Ratio eigmin/eigmax               1.74E-06  (threshold= 1.00E-09)
 Smallest eigenvalue of S kept     2.44E-04  (threshold= 2.44E-04, 0 functions deleted, 376 kept)
 
 Construction of CABS:
 Smallest eigenvalue of S          2.26E-08  (threshold= 1.00E-08)
 Ratio eigmin/eigmax               2.26E-08  (threshold= 1.00E-09)
 Smallest eigenvalue of S kept     2.26E-08  (threshold= 2.26E-08, 0 functions deleted, 376 kept)
 
 CPU time for CABS singles                        0.16 sec

 CABS-singles contribution of  -0.01594864 patched into reference energy.
 New reference energy        -263.78384231
 
 AO(A)-basis ORBITAL           loaded. Number of functions:     230
 RI(R)-basis CC-PVTZ/JKFIT     loaded. Number of functions:     376
 DF-basis AUG-CC-PVTZ/MP2FIT   loaded. Number of functions:     516

 Screening thresholds:   THRAO=  1.00D-10  THRMO=  1.00D-09  THRPROD=  1.00D-09
                         THRSW=  1.00D-05  THROV=  1.00D-12  THRF12=   1.00D-08

 CPU time for 3-index integral evaluation         3.60 sec
 CPU time for first  half transformation          0.37 sec ( 8029.5 MFLOP/sec)
 CPU time for second half transformation          0.02 sec ( 5325.7 MFLOP/sec)
 CPU time for sorting                             0.31 sec
 CPU time for fitting                             0.09 sec (15478.3 MFLOP/sec)
 CPU time for tilde quantities                    0.09 sec (20732.5 MFLOP/sec)
 CPU time for assembly                            1.02 sec (22985.5 MFLOP/sec)
 CPU time for tranop_f12                          0.96 sec (31381.6 MFLOP/sec)
 CPU time for f12 integrals (total)               9.05 sec
 F12-matrices built in  3 passes.
 F12-matrices built in  3 passes.
 F12-matrices built in  3 passes.
 F12-matrices built in  3 passes.
 FC-matrix built in  3 passes.
 CPU time for f12 matrices (total)                0.74 sec

 Diagonal F12 approximation with fixed coefficients:  TSING= 0.500,  TTRIP= 0.250 (scaled by -1/beta)

 DF-MP2-F12 energy corrections:
 ------------------------------
 Approx.                                    Singlet             Triplet             Total
 DF-MP2-F12/3*C(DX,FIX)                -0.097382846158     -0.017037421322     -0.114420267480
 DF-MP2-F12/3*C(FIX)                   -0.079780354593     -0.013520320918     -0.093300675511
 DF-MP2-F12/3C(FIX)                    -0.080153996736     -0.013561889987     -0.093715886723

 DF-MP2-F12 correlation energies:
 --------------------------------
 Approx.                                    Singlet             Triplet             Ecorr            Total Energy
 DF-MP2                                -0.538090569305     -0.345441385013     -0.883531954318   -264.667374267421
 DF-MP2-F12/3*C(DX,FIX)                -0.635473415463     -0.362478806335     -0.997952221798   -264.781794534902
 DF-MP2-F12/3*C(FIX)                   -0.617870923898     -0.358961705931     -0.976832629829   -264.760674942932
 DF-MP2-F12/3C(FIX)                    -0.618244566041     -0.359003275000     -0.977247841041   -264.761090154144

 SCS-DF-MP2 energies (F_SING= 1.20000  F_TRIP= 0.62222  F_PARALLEL= 0.33333):
 ----------------------------------------------------------------------------
 SCS-DF-MP2                            -0.860649989396   -264.644492302499
 SCS-DF-MP2-F12/3*C(DX,FIX)            -0.988110466942   -264.771952780045
 SCS-DF-MP2-F12/3*C(FIX)               -0.964799059034   -264.748641372138
 SCS-DF-MP2-F12/3C(FIX)                -0.965273294805   -264.749115607908

 Symmetry restored.
 Symmetry transformation completed.

 Number of N-1 electron functions:              12
 Number of N-2 electron functions:              78
 Number of singly external CSFs:               732
 Number of doubly external CSFs:            836016
 Total number of CSFs:                      836749

 Pair and operator lists are different

 Length of J-op  integral file:             462.26 MB
 Length of K-op  integral file:             502.03 MB
 Length of 3-ext integral record:             0.00 MB

 Memory could be reduced to 38.69 Mwords without degradation in triples

 Integral transformation finished. Total CPU:   1.84 sec, npass=  1  Memory used:   6.07 MW

 Reference energy:                   -263.78384231

 Adding F12 terms to K(Cij), methodcc=6,  factor=1.0

 ITER.      SQ.NORM     CORR.ENERGY   TOTAL ENERGY   ENERGY CHANGE        DEN1      VAR(S)    VAR(P)  DIIS     TIME
   1      1.20207763    -0.86528727  -264.64912959     0.01825607     0.04681924  0.72D-02  0.55D-02  1  1    14.19
   2      1.21643660    -0.86112268  -264.64496499     0.00416459    -0.02021412  0.89D-04  0.59D-03  2  2    15.32
   3      1.22180278    -0.86124346  -264.64508577    -0.00012078    -0.00231140  0.13D-03  0.32D-04  3  3    16.32
   4      1.22463953    -0.86111295  -264.64495526     0.00013051    -0.00141710  0.81D-05  0.41D-05  4  4    17.32
   5      1.22569069    -0.86107630  -264.64491861     0.00003665    -0.00036696  0.65D-06  0.29D-06  5  5    18.35
   6      1.22586034    -0.86104893  -264.64489125     0.00002736    -0.00000798  0.48D-07  0.26D-07  6  6    19.39
   7      1.22589387    -0.86104606  -264.64488837     0.00000287    -0.00000683  0.44D-08  0.41D-08  6  2    20.40
   8      1.22589471    -0.86104578  -264.64488809     0.00000028     0.00000205  0.48D-09  0.33D-09  6  1    21.45
   9      1.22589537    -0.86104585  -264.64488817    -0.00000007     0.00000068  0.52D-10  0.27D-10  6  4    22.47

 Norm of t1 vector:      0.10700923      S-energy:     0.00000002      T1 diagnostic:  0.01544545
                                                                       D1 diagnostic:  0.04650890

 Adding energy correction from Wij-K(Fij), methodcc=6  factor=1.0
 
  CCSD correlation energy              -0.861045853999
  MP2-F12 correction (uncoupled)       -0.092553967729
  C*T doubles correction               -0.001472253028
  f12b correction                       0.015422440352


 Total CPU time for triples:     43.43 sec


 RESULTS
 =======

  Reference energy                   -263.767893670224
  F12 singles correction               -0.015948642880

 F12 singles corrections added to reference energy

  New reference energy               -263.783842313103

  F12a singlet correction              -0.080354850347
  F12a triplet correction              -0.013671370410
  F12a total correction                -0.094026220757

 F12a corrections for ansatz F12/3C(FIX) added to CCSD energy
 
  CCSD-F12a singlet pair energy        -0.641819520281
  CCSD-F12a triplet pair energy        -0.313252579475
  CCSD-F12a correlation energy         -0.955072074756

  Triples (T) contribution             -0.038111899086
  Total correlation energy             -0.993183973842

  CCSD-F12a total energy             -264.738914387860
  CCSD[T]-F12a energy                -264.779578822186
  CCSD-T-F12a energy                 -264.776095532444
 !CCSD(T)-F12a total energy          -264.777026286945

 F12b corrections for ansatz F12/3C(FIX) added to CCSD(T)-F12a energy

  CCSD-F12b singlet pair energy        -0.627636003115
  CCSD-F12b triplet pair energy        -0.312013656289
  CCSD-F12b correlation energy         -0.939649634404

  Triples (T) contribution             -0.038111899086
  Total correlation energy             -0.977761533490

  CCSD-F12b total energy             -264.723491947508
  CCSD[T]-F12b energy                -264.764156381834
  CCSD-T-F12b energy                 -264.760673092092
 !CCSD(T)-F12b total energy          -264.761603846593

 Timing summary (sec):

 STEP                 CPU(USER)    SYS     CPU(TOT)    WALL
 Transformation          1.84      0.27      2.11      2.12
 CCSD iterations         9.23      0.88     10.11     10.12
 Triples                43.43      0.87     44.30     44.28
 MP2-F12                11.40      1.37     12.77     14.21
 F12b energy             0.62      0.03      0.65      0.65

 Program statistics:

 Available memory in ccsd:                99998934
 Min. memory needed in ccsd:               2244783
 Max. memory used in ccsd:                 3005571
 Max. memory used in cckext:               2769663 (10 integral passes)



 **********************************************************************************************************************************
 DATASETS  * FILE   NREC   LENGTH (MB)   RECORD NAMES
              1      20      137.19       500      610      700      900      950      970     1000      129      960     1100   
                                          VAR    BASINP    GEOM    SYMINP    ZMAT    AOBASIS   BASIS     P2S    ABASIS      S 
                                         1400     1410     1200     1210     1080     1600     1650     1700      960(1)  1380   
                                           T        V       H0       H01     AOSYM     SMH    MOLCAS    OPER    ABASIS    JKOP   

              2       5        0.97       700     1000     2100     7360     7350   
                                         GEOM     BASIS     RHF    F12ABS    EF12   

 PROGRAMS   *        TOTAL   CCSD(T)        HF       INT
 CPU TIMES  *        74.27     66.59      1.37      6.24
 REAL TIME  *        84.63 SEC
 DISK USED  *         1.66 GB      
 SF USED    *         1.34 GB      
 GA USED    *         2.40 MB       (max)       0.00 MB       (current)
 **********************************************************************************************************************************

     CCSD(T)-F12        HF-SCF  
   -264.76160385   -263.76789367
 **********************************************************************************************************************************
 Variable memory released
