
 Primary working directories    : /scratch/kee
 Secondary working directories  : /scratch/kee
 Wavefunction directory         : /home/kee/wfu/
 Main file repository           : /scratch/kee/

 ARCHNAME  : Linux/x86_64
 FC        : /opt/intel/composer_xe_2015.0.090/bin/intel64/ifort
 FCVERSION : 15.0.0
 BLASLIB   : -L/opt/intel/mkl/lib/intel64 -lmkl_intel_ilp64 -lmkl_sequential -lmkl_core
 id        : emory

 Nodes     nprocs
 node4        3
 Number of processes for MPI-2 version of Molpro:   nprocs(total)=    4   nprocs(compute)=    3   nprocs(helper)=    1
 ga_uses_ma=false, calling ma_init with nominal heap.
 GA-space will be limited to   8.0 MW (determined by -G option)

 Using customized tuning parameters: mindgm=7; mindgv=32; mindgc=1; mindgr=1; noblas=0; mincuda=1000; minvec=7
 default implementation of scratch files=sf  

 ***,co2h2o
 memory,100,m
 basis avtz
 geomtype = xyz
 geometry = {
 6
       0.00000000
 O     0.00351000    1.16210700    0.00000000
 O     0.00351000   -1.16210700    0.00000000
 O     2.21968000    0.00000000    0.00000000
 H     2.80589800    0.00000000    0.75853100
 H     2.80589800    0.00000000   -0.75853100
 C     0.01968000    0.00000000    0.00000000
 }
 hf
 ccsd(t)-f12
 ---

 Variables initialized (665), CPU time= 0.00 sec
 Commands  initialized (462), CPU time= 0.01 sec, 486 directives.
 Default parameters read. Elapsed time= 0.03 sec

 Checking input...
 Passed
1


                                         ***  PROGRAM SYSTEM MOLPRO  ***
                         Copyright, University College Cardiff Consultants Limited, 2008

                                    Version 2010.1 linked 9 Dec 2014 15:06:28 


 **********************************************************************************************************************************
 LABEL *   co2h2o                                                                        
 Linux-2.6.32-504.el6.x86_64/node4(x86_64) 64 bit mpp version                            DATE: 12-Dec-16          TIME: 14:55:31  
 **********************************************************************************************************************************

 Patch level:      19
 **********************************************************************************************************************************

 Variable memory set to  100000000 words,  buffer space   230000 words

 SETTING BASIS          =    AVTZ
 SETTING GEOMTYPE       =    XYZ

Geometry recognized as XYZ



 Recomputing integrals since basis changed


 Using spherical harmonics

 Library entry O      S aug-cc-pVTZ          selected for orbital group  1
 Library entry O      P aug-cc-pVTZ          selected for orbital group  1
 Library entry O      D aug-cc-pVTZ          selected for orbital group  1
 Library entry O      F aug-cc-pVTZ          selected for orbital group  1
 Library entry H      S aug-cc-pVTZ          selected for orbital group  2
 Library entry H      P aug-cc-pVTZ          selected for orbital group  2
 Library entry H      D aug-cc-pVTZ          selected for orbital group  2
 Library entry C      S aug-cc-pVTZ          selected for orbital group  3
 Library entry C      P aug-cc-pVTZ          selected for orbital group  3
 Library entry C      D aug-cc-pVTZ          selected for orbital group  3
 Library entry C      F aug-cc-pVTZ          selected for orbital group  3

1PROGRAM * SEWARD (Integral evaluation for generally contracted gaussian basis sets)     Author: Roland Lindh, 1990

 Geometry written to block  1 of record 700


 Point group  C2v 



 ATOMIC COORDINATES

 NR  ATOM    CHARGE       X              Y              Z

   1  O       8.00    0.006632939    2.196063965    0.000000000
   2  O       8.00    0.006632939   -2.196063965    0.000000000
   3  O       8.00    4.194587299    0.000000000    0.000000000
   4  H       1.00    5.302378773    0.000000000    1.433415852
   5  H       1.00    5.302378773    0.000000000   -1.433415852
   6  C       6.00    0.037189810    0.000000000    0.000000000

 Bond lengths in Bohr (Angstrom)

 1-6  2.196276545  2-6  2.196276545  3-4  1.811596797  3-5  1.811596797
     (1.162219492)     (1.162219492)     (0.958655737)     (0.958655737)

 Bond angles

  1-6-2  178.40563223   4-3-5  104.60391356

 NUCLEAR CHARGE:                   32
 NUMBER OF PRIMITIVE AOS:         322
 NUMBER OF SYMMETRY AOS:          282
 NUMBER OF CONTRACTIONS:          230   (  84A1  +  59B1  +  54B2  +  33A2  )
 NUMBER OF CORE ORBITALS:           4   (   3A1  +   1B1  +   0B2  +   0A2  )
 NUMBER OF VALENCE ORBITALS:       18   (   8A1  +   5B1  +   4B2  +   1A2  )


 NUCLEAR REPULSION ENERGY  113.69055160


 Eigenvalues of metric

         1 0.116E-03 0.251E-03 0.368E-03 0.806E-03 0.127E-02 0.234E-02 0.279E-02 0.313E-02
         2 0.330E-03 0.753E-03 0.169E-02 0.292E-02 0.362E-02 0.618E-02 0.101E-01 0.179E-01
         3 0.275E-03 0.145E-02 0.293E-02 0.354E-02 0.601E-02 0.644E-02 0.112E-01 0.126E-01
         4 0.346E-02 0.113E-01 0.291E-01 0.324E-01 0.530E-01 0.673E-01 0.904E-01 0.134E+00


 Contracted 2-electron integrals neglected if value below      1.0D-11
 AO integral compression algorithm  1   Integral accuracy      1.0D-11

     437.256 MB (compressed) written to integral file ( 49.0%)

     Node minimum: 135.266 MB, node maximum: 160.432 MB


 NUMBER OF SORTED TWO-ELECTRON INTEGRALS:   29979201.     BUFFER LENGTH:  32768
 NUMBER OF SEGMENTS:   2  SEGMENT LENGTH:   15996954      RECORD LENGTH: 524288

 Memory used in sort:      16.55 MW

 SORT1 READ   111555100. AND WROTE    28882398. INTEGRALS IN     84 RECORDS. CPU TIME:     2.71 SEC, REAL TIME:     3.08 SEC
 SORT2 READ    86662670. AND WROTE    89930217. INTEGRALS IN   1620 RECORDS. CPU TIME:     0.69 SEC, REAL TIME:     0.96 SEC

 Node minimum:    29974277.  Node maximum:    29979201. integrals

 OPERATOR DM      FOR CENTER  0  COORDINATES:    0.000000    0.000000    0.000000


 **********************************************************************************************************************************
 DATASETS  * FILE   NREC   LENGTH (MB)   RECORD NAMES
              1      18        3.23       500      610      700      900      950      970     1000      129      960     1100   
                                          VAR    BASINP    GEOM    SYMINP    ZMAT    AOBASIS   BASIS     P2S    ABASIS      S 
                                         1400     1410     1200     1210     1080     1600     1650     1700   
                                           T        V       H0       H01     AOSYM     SMH    MOLCAS    OPER   

 PROGRAMS   *        TOTAL       INT
 CPU TIMES  *         5.98      5.92
 REAL TIME  *         6.84 SEC
 DISK USED  *         1.47 GB      
 GA USED    *         0.00 MB       (max)       0.00 MB       (current)
 **********************************************************************************************************************************

1PROGRAM * RHF-SCF (CLOSED SHELL)       Authors: W. Meyer, H.-J. Werner


 NUMBER OF ELECTRONS:      16+   16-
 CONVERGENCE THRESHOLDS:    1.00E-05 (Density)    1.00E-07 (Energy)
 MAX. NUMBER OF ITERATIONS:       60
 INTERPOLATION TYPE:            DIIS
 INTERPOLATION STEPS:              2 (START)      1 (STEP)
 LEVEL SHIFTS:                  0.00 (CLOSED)  0.00 (OPEN) 



 Orbital guess generated from atomic densities. Full valence occupancy:   11   6   4   1

 Molecular orbital dump at record        2100.2

 Initial alpha occupancy:   8   5   2   1
 Initial beta  occupancy:   8   5   2   1
 Wave function symmetry:    1

 ITERATION    DDIFF          GRAD             ENERGY        2-EL.EN.            DIPOLE MOMENTS         DIIS
    1      0.000D+00      0.000D+00      -263.65171766    424.307752    1.35606    0.00000    0.00000    0
    2      0.000D+00      0.863D-02      -263.71546607    419.519014    1.07990    0.00000    0.00000    1
    3      0.141D-01      0.567D-02      -263.75317752    421.806728    1.08780    0.00000    0.00000    2
    4      0.559D-02      0.584D-03      -263.75371539    421.709192    1.07968    0.00000    0.00000    3
    5      0.729D-03      0.189D-03      -263.75378225    421.660992    1.07236    0.00000    0.00000    4
    6      0.282D-03      0.736D-04      -263.75379117    421.683756    1.07234    0.00000    0.00000    5
    7      0.921D-04      0.152D-04      -263.75379193    421.675699    1.07184    0.00000    0.00000    6
    8      0.301D-04      0.336D-05      -263.75379197    421.677275    1.07189    0.00000    0.00000    7
    9      0.703D-05      0.120D-05      -263.75379197    421.676921    1.07188    0.00000    0.00000    0

 Final occupancy:   8   5   2   1

 !RHF STATE 1.1 Energy               -263.753791974749
 Nuclear energy                       113.69055160
 One-electron energy                 -588.28280411
 Two-electron energy                  210.83846053
 Virial quotient                       -1.00113819
 !RHF STATE 1.1 Dipole moment           1.07187602     0.00000000     0.00000000
 Dipole moment /Debye                   2.72425865     0.00000000     0.00000000

 Orbital energies:

         1.1          2.1          3.1          4.1          5.1          6.1          7.1          8.1          9.1         10.1
    -20.612702   -20.582408   -11.429561    -1.497056    -1.376927    -0.769484    -0.712503    -0.579617     0.022329     0.069709

         1.2          2.2          3.2          4.2          5.2          6.2          7.2
    -20.612746    -1.442496    -0.709842    -0.552202    -0.495200     0.086458     0.162878

         1.3          2.3          3.3          4.3
     -0.741840    -0.679196     0.044011     0.094578

         1.4          2.4          3.4
     -0.509162     0.170191     0.276575


 **********************************************************************************************************************************
 DATASETS  * FILE   NREC   LENGTH (MB)   RECORD NAMES
              1      18        3.25       500      610      700      900      950      970     1000      129      960     1100   
                                          VAR    BASINP    GEOM    SYMINP    ZMAT    AOBASIS   BASIS     P2S    ABASIS      S 
                                         1400     1410     1200     1210     1080     1600     1650     1700   
                                           T        V       H0       H01     AOSYM     SMH    MOLCAS    OPER   

              2       3        0.67       700     1000     2100   
                                         GEOM     BASIS     RHF  

 PROGRAMS   *        TOTAL        HF       INT
 CPU TIMES  *         7.32      1.33      5.92
 REAL TIME  *         8.31 SEC
 DISK USED  *         1.49 GB      
 SF USED    *         0.06 MB      
 GA USED    *         0.00 MB       (max)       0.00 MB       (current)
 **********************************************************************************************************************************


1PROGRAM * CCSD (Closed-shell coupled cluster)     Authors: C. Hampel, H.-J. Werner, 1991, M. Deegan, P.J. Knowles, 1992

                                  CCSD-F12 implementation by  H.-J. Werner, 2007

                   Density fitting integral evaluation by F.R. Manby, 2003,2007, G. Knizia, 2010

 Basis set CC-PVTZ/JKFIT generated.      Number of basis functions:   376 
 Basis set AUG-CC-PVTZ/MP2FIT generated. Number of basis functions:   516 

 Convergence thresholds:  THRVAR = 1.00D-08  THRDEN = 1.00D-06

 CCSD(T)     terms to be evaluated (factor= 1.000)


 Number of core orbitals:           4 (   3   1   0   0 )
 Number of closed-shell orbitals:  12 (   5   4   2   1 )
 Number of external orbitals:     214 (  76  54  52  32 )

 Molecular orbitals read from record     2100.2  Type=RHF/CANONICAL (state 1.1)

 MP2-F12 correlation treatment (H.-J. Werner, 2006)
 --------------------------------------------------

 Using MP2-F12 with ansatz 3C(FIX)

 Using projected zeroth-order Hamiltonian (+Z)

 FOCKRIB=T FOCKRIC=T FOCKRIP=T CABSP=T CABSA=T CABSK=T CABSF=T GBC=F EBC=F DMAT=T NOFIK=T NOPAO=1 SOLVE=-1  USEPAO=0
 EXCH_A= T EXCH_B= F EXCH_C= F EXCH_P= F
 
 Geminal basis:    OPTFULL  GEM_TYPE=SLATER  BETA=1.0  NGEM=6

 Optimizing Gaussian exponents for each gem_beta

 Geminal optimization for beta= 1.0000
 Weight function:   m=0, omega= 1.4646

 Augmented Hessian optimization of geminal fit. Trust ratio= 0.40000
 Convergence reached after   2 iterations. Final gradient= 8.24D-16, Step= 4.32D-06, Delta= 1.28D-09
 
 Alpha:                 0.19532     0.81920     2.85917     9.50073    35.69989   197.79328
 Coeff:                 0.27070     0.30552     0.18297     0.10986     0.06810     0.04224
 

 Symmetry turned off. Reference energy:       -263.753791974749

 All pairs explicitly correlated. Number of r12-pairs:           78
 
 AO(A)-basis ORBITAL           loaded. Number of functions:     230
 RI(R)-basis CC-PVTZ/JKFIT     loaded. Number of functions:     376
 DF-basis CC-PVTZ/JKFIT        loaded. Number of functions:     376

 Screening thresholds:   THRAO=  1.00D-10  THRMO=  1.00D-09  THRPROD=  1.00D-09
                         THRSW=  1.00D-05  THROV=  1.00D-12  THRF12=   1.00D-08

 CPU time for Fock operators                      1.04 sec
 
 Construction of ABS:
 Smallest eigenvalue of S          2.27E-04  (threshold= 1.00E-08)
 Ratio eigmin/eigmax               1.62E-06  (threshold= 1.00E-09)
 Smallest eigenvalue of S kept     2.27E-04  (threshold= 2.27E-04, 0 functions deleted, 376 kept)
 
 Construction of CABS:
 Smallest eigenvalue of S          2.23E-08  (threshold= 1.00E-08)
 Ratio eigmin/eigmax               2.23E-08  (threshold= 1.00E-09)
 Smallest eigenvalue of S kept     2.23E-08  (threshold= 2.23E-08, 0 functions deleted, 376 kept)
 
 CPU time for CABS singles                        0.17 sec

 CABS-singles contribution of  -0.01594439 patched into reference energy.
 New reference energy        -263.76973636
 
 AO(A)-basis ORBITAL           loaded. Number of functions:     230
 RI(R)-basis CC-PVTZ/JKFIT     loaded. Number of functions:     376
 DF-basis AUG-CC-PVTZ/MP2FIT   loaded. Number of functions:     516

 Screening thresholds:   THRAO=  1.00D-10  THRMO=  1.00D-09  THRPROD=  1.00D-09
                         THRSW=  1.00D-05  THROV=  1.00D-12  THRF12=   1.00D-08

 CPU time for 3-index integral evaluation         3.31 sec
 CPU time for first  half transformation          0.35 sec ( 8717.6 MFLOP/sec)
 CPU time for second half transformation          0.05 sec ( 2208.0 MFLOP/sec)
 CPU time for sorting                             0.13 sec
 CPU time for fitting                             0.07 sec (19900.7 MFLOP/sec)
 CPU time for tilde quantities                    0.09 sec (20543.1 MFLOP/sec)
 CPU time for assembly                            0.86 sec (28767.4 MFLOP/sec)
 CPU time for tranop_f12                          0.93 sec (32955.1 MFLOP/sec)
 CPU time for f12 integrals (total)               8.02 sec
 F12-matrices built in  3 passes.
 F12-matrices built in  3 passes.
 F12-matrices built in  3 passes.
 F12-matrices built in  3 passes.
 FC-matrix built in  3 passes.
 CPU time for f12 matrices (total)                0.55 sec

 Diagonal F12 approximation with fixed coefficients:  TSING= 0.500,  TTRIP= 0.250 (scaled by -1/beta)

 DF-MP2-F12 energy corrections:
 ------------------------------
 Approx.                                    Singlet             Triplet             Total
 DF-MP2-F12/3*C(DX,FIX)                -0.097562942797     -0.017172982723     -0.114735925520
 DF-MP2-F12/3*C(FIX)                   -0.079888788880     -0.013651209203     -0.093539998083
 DF-MP2-F12/3C(FIX)                    -0.080265250050     -0.013704411353     -0.093969661403

 DF-MP2-F12 correlation energies:
 --------------------------------
 Approx.                                    Singlet             Triplet             Ecorr            Total Energy
 DF-MP2                                -0.538260179109     -0.347569451723     -0.885829630833   -264.655565993786
 DF-MP2-F12/3*C(DX,FIX)                -0.635823121907     -0.364742434446     -1.000565556353   -264.770301919306
 DF-MP2-F12/3*C(FIX)                   -0.618148967990     -0.361220660927     -0.979369628916   -264.749105991870
 DF-MP2-F12/3C(FIX)                    -0.618525429159     -0.361273863076     -0.979799292235   -264.749535655189

 SCS-DF-MP2 energies (F_SING= 1.20000  F_TRIP= 0.62222  F_PARALLEL= 0.33333):
 ----------------------------------------------------------------------------
 SCS-DF-MP2                            -0.862177651559   -264.631914014513
 SCS-DF-MP2-F12/3*C(DX,FIX)            -0.989938594388   -264.759674957341
 SCS-DF-MP2-F12/3*C(FIX)               -0.966538283942   -264.736274646895
 SCS-DF-MP2-F12/3C(FIX)                -0.967023140905   -264.736759503858

 Symmetry restored.
 Symmetry transformation completed.

 Number of N-1 electron functions:              12
 Number of N-2 electron functions:              78
 Number of singly external CSFs:               732
 Number of doubly external CSFs:            836016
 Total number of CSFs:                      836749

 Pair and operator lists are different

 Length of J-op  integral file:             462.26 MB
 Length of K-op  integral file:             502.03 MB
 Length of 3-ext integral record:             0.00 MB

 Memory could be reduced to 38.69 Mwords without degradation in triples

 Integral transformation finished. Total CPU:   1.50 sec, npass=  1  Memory used:   6.07 MW

 Reference energy:                   -263.76973636

 Adding F12 terms to K(Cij), methodcc=6,  factor=1.0

 ITER.      SQ.NORM     CORR.ENERGY   TOTAL ENERGY   ENERGY CHANGE        DEN1      VAR(S)    VAR(P)  DIIS     TIME
   1      1.20168963    -0.86730582  -264.63704218     0.01853121     0.04706139  0.73D-02  0.55D-02  1  1    12.68
   2      1.21603039    -0.86316065  -264.63289702     0.00414516    -0.02021646  0.94D-04  0.58D-03  2  2    13.72
   3      1.22143269    -0.86329582  -264.63303219    -0.00013517    -0.00229454  0.14D-03  0.31D-04  3  3    14.77
   4      1.22431556    -0.86316221  -264.63289857     0.00013362    -0.00142175  0.90D-05  0.41D-05  4  4    15.82
   5      1.22540974    -0.86312588  -264.63286225     0.00003632    -0.00037327  0.83D-06  0.30D-06  5  5    16.89
   6      1.22559511    -0.86309747  -264.63283383     0.00002841    -0.00000810  0.65D-07  0.32D-07  6  6    17.93
   7      1.22563422    -0.86309444  -264.63283080     0.00000303    -0.00000717  0.83D-08  0.46D-08  6  2    18.99
   8      1.22563635    -0.86309408  -264.63283045     0.00000035     0.00000198  0.75D-09  0.44D-09  6  1    20.05
   9      1.22563710    -0.86309423  -264.63283059    -0.00000015     0.00000083  0.10D-09  0.40D-10  6  4    21.12

 Norm of t1 vector:      0.10824771      S-energy:     0.00000009      T1 diagnostic:  0.01562421
                                                                       D1 diagnostic:  0.04831950

 Adding energy correction from Wij-K(Fij), methodcc=6  factor=1.0
 
  CCSD correlation energy              -0.863094231777
  MP2-F12 correction (uncoupled)       -0.092776256094
  C*T doubles correction               -0.001493357481
  f12b correction                       0.015444121043


 Total CPU time for triples:     25.79 sec


 RESULTS
 =======

  Reference energy                   -263.753791974749
  F12 singles correction               -0.015944388204

 F12 singles corrections added to reference energy

  New reference energy               -263.769736362953

  F12a singlet correction              -0.080463620407
  F12a triplet correction              -0.013805993168
  F12a total correction                -0.094269613575

 F12a corrections for ansatz F12/3C(FIX) added to CCSD energy
 
  CCSD-F12a singlet pair energy        -0.641707344887
  CCSD-F12a triplet pair energy        -0.315656586119
  CCSD-F12a correlation energy         -0.957363845352

  Triples (T) contribution             -0.038423075959
  Total correlation energy             -0.995786921310

  CCSD-F12a total energy             -264.727100208305
  CCSD[T]-F12a energy                -264.768094949857
  CCSD-T-F12a energy                 -264.764597233691
 !CCSD(T)-F12a total energy          -264.765523284264

 F12b corrections for ansatz F12/3C(FIX) added to CCSD(T)-F12a energy

  CCSD-F12b singlet pair energy        -0.627517825229
  CCSD-F12b triplet pair energy        -0.314401984733
  CCSD-F12b correlation energy         -0.941919724308

  Triples (T) contribution             -0.038423075959
  Total correlation energy             -0.980342800267

  CCSD-F12b total energy             -264.711656087261
  CCSD[T]-F12b energy                -264.752650828813
  CCSD-T-F12b energy                 -264.749153112647
 !CCSD(T)-F12b total energy          -264.750079163220

 Timing summary (sec):

 STEP                 CPU(USER)    SYS     CPU(TOT)    WALL
 Transformation          1.51      0.25      1.76      1.80
 CCSD iterations         9.43      0.74     10.17     10.17
 Triples                25.79      0.82     26.61     26.59
 MP2-F12                10.19      1.28     11.47     11.47
 F12b energy             0.65      0.01      0.66      0.67

 Program statistics:

 Available memory in ccsd:                99998934
 Min. memory needed in ccsd:               2244783
 Max. memory used in ccsd:                 3005571
 Max. memory used in cckext:               2769663 (10 integral passes)



 **********************************************************************************************************************************
 DATASETS  * FILE   NREC   LENGTH (MB)   RECORD NAMES
              1      20      137.19       500      610      700      900      950      970     1000      129      960     1100   
                                          VAR    BASINP    GEOM    SYMINP    ZMAT    AOBASIS   BASIS     P2S    ABASIS      S 
                                         1400     1410     1200     1210     1080     1600     1650     1700      960(1)  1380   
                                           T        V       H0       H01     AOSYM     SMH    MOLCAS    OPER    ABASIS    JKOP   

              2       5        0.97       700     1000     2100     7360     7350   
                                         GEOM     BASIS     RHF    F12ABS    EF12   

 PROGRAMS   *        TOTAL   CCSD(T)        HF       INT
 CPU TIMES  *        54.90     47.58      1.33      5.92
 REAL TIME  *        59.27 SEC
 DISK USED  *         1.71 GB      
 SF USED    *         1.34 GB      
 GA USED    *         2.40 MB       (max)       0.00 MB       (current)
 **********************************************************************************************************************************

     CCSD(T)-F12        HF-SCF  
   -264.75007916   -263.75379197
 **********************************************************************************************************************************
 Variable memory released
