
 Primary working directories    : /scratch/kee
 Secondary working directories  : /scratch/kee
 Wavefunction directory         : /home/kee/wfu/
 Main file repository           : /scratch/kee/

 ARCHNAME  : Linux/x86_64
 FC        : /opt/intel/composer_xe_2015.0.090/bin/intel64/ifort
 FCVERSION : 15.0.0
 BLASLIB   : -L/opt/intel/mkl/lib/intel64 -lmkl_intel_ilp64 -lmkl_sequential -lmkl_core
 id        : emory

 Nodes     nprocs
 node23       3
 Number of processes for MPI-2 version of Molpro:   nprocs(total)=    4   nprocs(compute)=    3   nprocs(helper)=    1
 ga_uses_ma=false, calling ma_init with nominal heap.
 GA-space will be limited to   8.0 MW (determined by -G option)

 Using customized tuning parameters: mindgm=7; mindgv=32; mindgc=1; mindgr=1; noblas=0; mincuda=1000; minvec=7
 default implementation of scratch files=sf  

 ***,co2h2o
 memory,100,m
 basis avtz
 geomtype = xyz
 geometry = {
 6
       0.00000777
 O    10.97257393   -1.10347931    0.00000000
 O    11.76744404    1.08065151   -0.00000000
 O     0.24356282    0.00000000    0.00000000
 H    -0.50443226    0.58340495    0.10287003
 H     0.99598802    0.58686026    0.10347930
 C    11.34356282    0.00000000    0.00000000
 }
 hf
 ccsd(t)-f12
 ---

 Variables initialized (665), CPU time= 0.01 sec
 Commands  initialized (462), CPU time= 0.00 sec, 486 directives.
 Default parameters read. Elapsed time= 0.03 sec

 Checking input...
 Passed
1


                                         ***  PROGRAM SYSTEM MOLPRO  ***
                         Copyright, University College Cardiff Consultants Limited, 2008

                                    Version 2010.1 linked 9 Dec 2014 15:06:28 


 **********************************************************************************************************************************
 LABEL *   co2h2o                                                                        
 Linux-2.6.32-504.el6.x86_64/node23(x86_64) 64 bit mpp version                           DATE: 18-Jan-17          TIME: 21:08:35  
 **********************************************************************************************************************************

 Patch level:      19
 **********************************************************************************************************************************

 Variable memory set to  100000000 words,  buffer space   230000 words

 SETTING BASIS          =    AVTZ
 SETTING GEOMTYPE       =    XYZ

Geometry recognized as XYZ



 Recomputing integrals since basis changed


 Using spherical harmonics

 Library entry O      S aug-cc-pVTZ          selected for orbital group  1
 Library entry O      P aug-cc-pVTZ          selected for orbital group  1
 Library entry O      D aug-cc-pVTZ          selected for orbital group  1
 Library entry O      F aug-cc-pVTZ          selected for orbital group  1
 Library entry H      S aug-cc-pVTZ          selected for orbital group  2
 Library entry H      P aug-cc-pVTZ          selected for orbital group  2
 Library entry H      D aug-cc-pVTZ          selected for orbital group  2
 Library entry C      S aug-cc-pVTZ          selected for orbital group  3
 Library entry C      P aug-cc-pVTZ          selected for orbital group  3
 Library entry C      D aug-cc-pVTZ          selected for orbital group  3
 Library entry C      F aug-cc-pVTZ          selected for orbital group  3

1PROGRAM * SEWARD (Integral evaluation for generally contracted gaussian basis sets)     Author: Roland Lindh, 1990

 Geometry written to block  1 of record 700


 Point group  C1  



 ATOMIC COORDINATES

 NR  ATOM    CHARGE       X              Y              Z

   1  O       8.00   20.735159684   -2.085273688    0.000000000
   2  O       8.00   22.237246502    2.042135397    0.000000000
   3  O       8.00    0.460267026    0.000000000    0.000000000
   4  H       1.00   -0.953238823    1.102475579    0.194396184
   5  H       1.00    1.882144588    1.109005169    0.195547537
   6  C       6.00   21.436227084    0.000000000    0.000000000

 Bond lengths in Bohr (Angstrom)

 1-6  2.199968602  2-6  2.193615529  3-4  1.803119814  3-5  1.813799081
     (1.164173245)     (1.160811343)     (0.954169911)     (0.959821135)

 Bond angles

  1-6-2  177.16520951   4-3-5  103.24222917

 NUCLEAR CHARGE:                   32
 NUMBER OF PRIMITIVE AOS:         322
 NUMBER OF SYMMETRY AOS:          282
 NUMBER OF CONTRACTIONS:          230   ( 230A   )
 NUMBER OF CORE ORBITALS:           4   (   4A   )
 NUMBER OF VALENCE ORBITALS:       18   (  18A   )


 NUCLEAR REPULSION ENERGY   77.92035487


 Eigenvalues of metric

         1 0.350E-03 0.385E-03 0.392E-03 0.421E-03 0.904E-03 0.923E-03 0.164E-02 0.176E-02


 Contracted 2-electron integrals neglected if value below      1.0D-11
 AO integral compression algorithm  1   Integral accuracy      1.0D-11

     364.118 MB (compressed) written to integral file ( 19.8%)

     Node minimum: 104.071 MB, node maximum: 143.917 MB


 NUMBER OF SORTED TWO-ELECTRON INTEGRALS:  117629820.     BUFFER LENGTH:  32768
 NUMBER OF SEGMENTS:   8  SEGMENT LENGTH:   15997437      RECORD LENGTH: 524288

 Memory used in sort:      16.55 MW

 SORT1 READ   229867864. AND WROTE    24508426. INTEGRALS IN     75 RECORDS. CPU TIME:     1.99 SEC, REAL TIME:     2.25 SEC
 SORT2 READ    73178543. AND WROTE   352862895. INTEGRALS IN   1329 RECORDS. CPU TIME:     0.83 SEC, REAL TIME:     1.04 SEC

 Node minimum:   117612110.  Node maximum:   117629820. integrals

 OPERATOR DM      FOR CENTER  0  COORDINATES:    0.000000    0.000000    0.000000


 **********************************************************************************************************************************
 DATASETS  * FILE   NREC   LENGTH (MB)   RECORD NAMES
              1      18        4.62       500      610      700      900      950      970     1000      129      960     1100   
                                          VAR    BASINP    GEOM    SYMINP    ZMAT    AOBASIS   BASIS     P2S    ABASIS      S 
                                         1400     1410     1200     1210     1080     1600     1650     1700   
                                           T        V       H0       H01     AOSYM     SMH    MOLCAS    OPER   

 PROGRAMS   *        TOTAL       INT
 CPU TIMES  *         5.13      5.06
 REAL TIME  *         5.69 SEC
 DISK USED  *         1.25 GB      
 GA USED    *         0.00 MB       (max)       0.00 MB       (current)
 **********************************************************************************************************************************

1PROGRAM * RHF-SCF (CLOSED SHELL)       Authors: W. Meyer, H.-J. Werner


 NUMBER OF ELECTRONS:      16+   16-    SPACE SYMMETRY=1    SPIN SYMMETRY=Singlet 
 CONVERGENCE THRESHOLDS:    1.00E-05 (Density)    1.00E-07 (Energy)
 MAX. NUMBER OF ITERATIONS:       60
 INTERPOLATION TYPE:            DIIS
 INTERPOLATION STEPS:              2 (START)      1 (STEP)
 LEVEL SHIFTS:                  0.00 (CLOSED)  0.00 (OPEN) 



 Orbital guess generated from atomic densities. Full valence occupancy:   22

 Molecular orbital dump at record        2100.2

 ITERATION    DDIFF          GRAD             ENERGY        2-EL.EN.            DIPOLE MOMENTS         DIIS
    1      0.000D+00      0.000D+00      -263.65949013    351.217513   -0.06882    1.17033    0.19888    0
    2      0.000D+00      0.469D-02      -263.72500566    346.703547   -0.01102    0.67279    0.11721    1
    3      0.752D-02      0.319D-02      -263.76857272    349.254934   -0.03307    0.79864    0.13671    2
    4      0.310D-02      0.300D-03      -263.76906940    349.041646   -0.03230    0.80103    0.13758    3
    5      0.356D-03      0.874D-04      -263.76912797    349.044895   -0.03201    0.79692    0.13660    4
    6      0.133D-03      0.354D-04      -263.76913525    349.059228   -0.03213    0.79688    0.13675    5
    7      0.443D-04      0.873D-05      -263.76913599    349.051068   -0.03201    0.79688    0.13667    6
    8      0.145D-04      0.209D-05      -263.76913604    349.052186   -0.03212    0.79660    0.13668    7
    9      0.400D-05      0.124D-05      -263.76913604    349.052177   -0.03203    0.79684    0.13667    0

 Final occupancy:  16

 !RHF STATE 1.1 Energy               -263.769136041092
 Nuclear energy                        77.92035487
 One-electron energy                 -516.21557923
 Two-electron energy                  174.52608832
 Virial quotient                       -1.00179927
 !RHF STATE 1.1 Dipole moment          -0.03203029     0.79683950     0.13667201
 Dipole moment /Debye                  -0.08140755     2.02523134     0.34736286

 Orbital energies:

         1.1          2.1          3.1          4.1          5.1          6.1          7.1          8.1          9.1         10.1
    -20.654270   -20.653112   -20.567918   -11.462561    -1.531213    -1.477906    -1.354884    -0.801552    -0.743645    -0.715709

        11.1         12.1         13.1         14.1         15.1         16.1         17.1         18.1
     -0.715232    -0.715219    -0.587705    -0.544929    -0.544877    -0.510970     0.028929     0.044117


 **********************************************************************************************************************************
 DATASETS  * FILE   NREC   LENGTH (MB)   RECORD NAMES
              1      18        4.62       500      610      700      900      950      970     1000      129      960     1100   
                                          VAR    BASINP    GEOM    SYMINP    ZMAT    AOBASIS   BASIS     P2S    ABASIS      S 
                                         1400     1410     1200     1210     1080     1600     1650     1700   
                                           T        V       H0       H01     AOSYM     SMH    MOLCAS    OPER   

              2       3        1.44       700     1000     2100   
                                         GEOM     BASIS     RHF  

 PROGRAMS   *        TOTAL        HF       INT
 CPU TIMES  *        12.01      6.88      5.06
 REAL TIME  *        12.75 SEC
 DISK USED  *         1.29 GB      
 SF USED    *         0.21 MB      
 GA USED    *         0.00 MB       (max)       0.00 MB       (current)
 **********************************************************************************************************************************


1PROGRAM * CCSD (Closed-shell coupled cluster)     Authors: C. Hampel, H.-J. Werner, 1991, M. Deegan, P.J. Knowles, 1992

                                  CCSD-F12 implementation by  H.-J. Werner, 2007

                   Density fitting integral evaluation by F.R. Manby, 2003,2007, G. Knizia, 2010

 Basis set CC-PVTZ/JKFIT generated.      Number of basis functions:   376 
 Basis set AUG-CC-PVTZ/MP2FIT generated. Number of basis functions:   516 

 Convergence thresholds:  THRVAR = 1.00D-08  THRDEN = 1.00D-06

 CCSD(T)     terms to be evaluated (factor= 1.000)


 Number of core orbitals:           4 (   4 )
 Number of closed-shell orbitals:  12 (  12 )
 Number of external orbitals:     214 ( 214 )

 Molecular orbitals read from record     2100.2  Type=RHF/CANONICAL (state 1.1)

 MP2-F12 correlation treatment (H.-J. Werner, 2006)
 --------------------------------------------------

 Using MP2-F12 with ansatz 3C(FIX)

 Using projected zeroth-order Hamiltonian (+Z)

 FOCKRIB=T FOCKRIC=T FOCKRIP=T CABSP=T CABSA=T CABSK=T CABSF=T GBC=F EBC=F DMAT=T NOFIK=T NOPAO=1 SOLVE=-1  USEPAO=0
 EXCH_A= T EXCH_B= F EXCH_C= F EXCH_P= F
 
 Geminal basis:    OPTFULL  GEM_TYPE=SLATER  BETA=1.0  NGEM=6

 Optimizing Gaussian exponents for each gem_beta

 Geminal optimization for beta= 1.0000
 Weight function:   m=0, omega= 1.4646

 Augmented Hessian optimization of geminal fit. Trust ratio= 0.40000
 Convergence reached after   2 iterations. Final gradient= 8.24D-16, Step= 4.32D-06, Delta= 1.28D-09
 
 Alpha:                 0.19532     0.81920     2.85917     9.50073    35.69989   197.79328
 Coeff:                 0.27070     0.30552     0.18297     0.10986     0.06810     0.04224
 

 All pairs explicitly correlated. Number of r12-pairs:           78
 
 AO(A)-basis ORBITAL           loaded. Number of functions:     230
 RI(R)-basis CC-PVTZ/JKFIT     loaded. Number of functions:     376
 DF-basis CC-PVTZ/JKFIT        loaded. Number of functions:     376

 Screening thresholds:   THRAO=  1.00D-10  THRMO=  1.00D-09  THRPROD=  1.00D-09
                         THRSW=  1.00D-05  THROV=  1.00D-12  THRF12=   1.00D-08

 CPU time for Fock operators                      0.84 sec
 
 Construction of ABS:
 Smallest eigenvalue of S          2.58E-04  (threshold= 1.00E-08)
 Ratio eigmin/eigmax               1.84E-06  (threshold= 1.00E-09)
 Smallest eigenvalue of S kept     2.58E-04  (threshold= 2.58E-04, 0 functions deleted, 376 kept)
 
 Construction of CABS:
 Smallest eigenvalue of S          2.30E-08  (threshold= 1.00E-08)
 Ratio eigmin/eigmax               2.30E-08  (threshold= 1.00E-09)
 Smallest eigenvalue of S kept     2.30E-08  (threshold= 2.30E-08, 0 functions deleted, 376 kept)
 
 CPU time for CABS singles                        0.15 sec

 CABS-singles contribution of  -0.01593124 patched into reference energy.
 New reference energy        -263.78506728
 
 AO(A)-basis ORBITAL           loaded. Number of functions:     230
 RI(R)-basis CC-PVTZ/JKFIT     loaded. Number of functions:     376
 DF-basis AUG-CC-PVTZ/MP2FIT   loaded. Number of functions:     516

 Screening thresholds:   THRAO=  1.00D-10  THRMO=  1.00D-09  THRPROD=  1.00D-09
                         THRSW=  1.00D-05  THROV=  1.00D-12  THRF12=   1.00D-08

 CPU time for 3-index integral evaluation         1.49 sec
 CPU time for first  half transformation          0.13 sec (15179.1 MFLOP/sec)
 CPU time for second half transformation          0.02 sec ( 4570.3 MFLOP/sec)
 CPU time for sorting                             0.09 sec
 CPU time for fitting                             0.05 sec (27861.0 MFLOP/sec)
 CPU time for tilde quantities                    0.07 sec (26412.6 MFLOP/sec)
 CPU time for assembly                            0.78 sec (30896.4 MFLOP/sec)
 CPU time for tranop_f12                          0.83 sec (36466.5 MFLOP/sec)
 CPU time for f12 integrals (total)               5.48 sec
 F12-matrices built in  3 passes.
 F12-matrices built in  3 passes.
 F12-matrices built in  3 passes.
 F12-matrices built in  3 passes.
 FC-matrix built in  3 passes.
 CPU time for f12 matrices (total)                0.48 sec

 Diagonal F12 approximation with fixed coefficients:  TSING= 0.500,  TTRIP= 0.250 (scaled by -1/beta)

 DF-MP2-F12 energy corrections:
 ------------------------------
 Approx.                                    Singlet             Triplet             Total
 DF-MP2-F12/3*C(DX,FIX)                -0.097444267798     -0.016933723320     -0.114377991118
 DF-MP2-F12/3*C(FIX)                   -0.079853381908     -0.013394867931     -0.093248249839
 DF-MP2-F12/3C(FIX)                    -0.080214860947     -0.013418669543     -0.093633530490

 DF-MP2-F12 correlation energies:
 --------------------------------
 Approx.                                    Singlet             Triplet             Ecorr            Total Energy
 DF-MP2                                -0.537792759980     -0.343134538851     -0.880927298831   -264.665994582390
 DF-MP2-F12/3*C(DX,FIX)                -0.635237027778     -0.360068262171     -0.995305289948   -264.780372573508
 DF-MP2-F12/3*C(FIX)                   -0.617646141888     -0.356529406782     -0.974175548670   -264.759242832229
 DF-MP2-F12/3C(FIX)                    -0.618007620927     -0.356553208393     -0.974560829321   -264.759628112880

 SCS-DF-MP2 energies (F_SING= 1.20000  F_TRIP= 0.62222  F_PARALLEL= 0.33333):
 ----------------------------------------------------------------------------
 SCS-DF-MP2                            -0.858857247261   -264.643924530820
 SCS-DF-MP2-F12/3*C(DX,FIX)            -0.986326907573   -264.771394191132
 SCS-DF-MP2-F12/3*C(FIX)               -0.963015890041   -264.748083173601
 SCS-DF-MP2-F12/3C(FIX)                -0.963464474780   -264.748531758339
 Symmetry transformation completed.

 Number of N-1 electron functions:              12
 Number of N-2 electron functions:              78
 Number of singly external CSFs:              2568
 Number of doubly external CSFs:           3298596
 Total number of CSFs:                     3301165

 Pair and operator lists are different

 Length of J-op  integral file:             474.22 MB
 Length of K-op  integral file:             572.29 MB
 Length of 3-ext integral record:             0.00 MB

 For full I/O caching in triples, increase memory by 50.81 Mwords to 151.09 Mwords.

 Integral transformation finished. Total CPU:  11.24 sec, npass=  1  Memory used:  87.46 MW

 Reference energy:                   -263.78506728

 Adding F12 terms to K(Cij), methodcc=6,  factor=1.0

 ITER.      SQ.NORM     CORR.ENERGY   TOTAL ENERGY   ENERGY CHANGE        DEN1      VAR(S)    VAR(P)  DIIS     TIME
   1      1.20217013    -0.86285776  -264.64792504     0.01808590     0.04675057  0.72D-02  0.56D-02  1  1    24.55
   2      1.21649430    -0.85861847  -264.64368575     0.00423929    -0.02017044  0.86D-04  0.59D-03  2  2    31.26
   3      1.22185820    -0.85871374  -264.64378103    -0.00009527    -0.00236195  0.13D-03  0.32D-04  3  3    39.39
   4      1.22466479    -0.85858513  -264.64365242     0.00012861    -0.00141261  0.76D-05  0.41D-05  4  4    45.71
   5      1.22569807    -0.85854717  -264.64361445     0.00003797    -0.00036739  0.56D-06  0.29D-06  5  5    52.08
   6      1.22586075    -0.85852023  -264.64358751     0.00002694    -0.00000807  0.40D-07  0.24D-07  6  6    58.46
   7      1.22589025    -0.85851779  -264.64358507     0.00000244    -0.00000622  0.26D-08  0.40D-08  6  4    64.78
   8      1.22589061    -0.85851729  -264.64358457     0.00000050     0.00000193  0.40D-09  0.28D-09  6  1    71.08
   9      1.22589120    -0.85851736  -264.64358464    -0.00000007     0.00000058  0.27D-10  0.22D-10  6  2    77.44

 Norm of t1 vector:      0.10606684      S-energy:     0.00000025      T1 diagnostic:  0.01530943
                                                                       D1 diagnostic:  0.04500907

 Adding energy correction from Wij-K(Fij), methodcc=6  factor=1.0
 
  CCSD correlation energy              -0.858517355040
  MP2-F12 correction (uncoupled)       -0.092474954996
  C*T doubles correction               -0.001477530272
  f12b correction                       0.015405134543


 Total CPU time for triples:    197.90 sec


 RESULTS
 =======

  Reference energy                   -263.769136041092
  F12 singles correction               -0.015931242467

 F12 singles corrections added to reference energy

  New reference energy               -263.785067283559

  F12a singlet correction              -0.080415597502
  F12a triplet correction              -0.013536887767
  F12a total correction                -0.093952485268

 F12a corrections for ansatz F12/3C(FIX) added to CCSD energy
 
  CCSD-F12a singlet pair energy        -0.641931632501
  CCSD-F12a triplet pair energy        -0.310538460063
  CCSD-F12a correlation energy         -0.952469840309

  Triples (T) contribution             -0.037658860422
  Total correlation energy             -0.990128700730

  CCSD-F12a total energy             -264.737537123868
  CCSD[T]-F12a energy                -264.777744711025
  CCSD-T-F12a energy                 -264.774256773766
 !CCSD(T)-F12a total energy          -264.775195984290

 F12b corrections for ansatz F12/3C(FIX) added to CCSD(T)-F12a energy

  CCSD-F12b singlet pair energy        -0.627749623096
  CCSD-F12b triplet pair energy        -0.309315334926
  CCSD-F12b correlation energy         -0.937064705765

  Triples (T) contribution             -0.037658860422
  Total correlation energy             -0.974723566187

  CCSD-F12b total energy             -264.722131989325
  CCSD[T]-F12b energy                -264.762339576482
  CCSD-T-F12b energy                 -264.758851639223
 !CCSD(T)-F12b total energy          -264.759790849746

 Timing summary (sec):

 STEP                 CPU(USER)    SYS     CPU(TOT)    WALL
 Transformation         11.36      1.03     12.39     12.48
 CCSD iterations        58.63      2.60     61.23     62.19
 Triples               197.90      2.28    200.18    200.08
 MP2-F12                 7.47      1.10      8.57      8.58
 F12b energy             3.60      0.04      3.64      3.64

 Program statistics:

 Available memory in ccsd:                99998934
 Min. memory needed in ccsd:               8644845
 Max. memory used in ccsd:                11598633
 Max. memory used in cckext:               8768967 (10 integral passes)



 **********************************************************************************************************************************
 DATASETS  * FILE   NREC   LENGTH (MB)   RECORD NAMES
              1      20      527.84       500      610      700      900      950      970     1000      129      960     1100   
                                          VAR    BASINP    GEOM    SYMINP    ZMAT    AOBASIS   BASIS     P2S    ABASIS      S 
                                         1400     1410     1200     1210     1080     1600     1650     1700      960(1)  1380   
                                           T        V       H0       H01     AOSYM     SMH    MOLCAS    OPER    ABASIS    JKOP   

              2       5        2.50       700     1000     2100     7360     7350   
                                         GEOM     BASIS     RHF    F12ABS    EF12   

 PROGRAMS   *        TOTAL   CCSD(T)        HF       INT
 CPU TIMES  *       290.99    278.98      6.88      5.06
 REAL TIME  *       300.07 SEC
 DISK USED  *         2.15 GB      
 SF USED    *         1.91 GB      
 GA USED    *         2.40 MB       (max)       0.00 MB       (current)
 **********************************************************************************************************************************

     CCSD(T)-F12        HF-SCF  
   -264.75979085   -263.76913604
 **********************************************************************************************************************************
 Variable memory released
