
 Primary working directories    : /scratch/kee
 Secondary working directories  : /scratch/kee
 Wavefunction directory         : /home/kee/wfu/
 Main file repository           : /scratch/kee/

 ARCHNAME  : Linux/x86_64
 FC        : /opt/intel/composer_xe_2015.0.090/bin/intel64/ifort
 FCVERSION : 15.0.0
 BLASLIB   : -L/opt/intel/mkl/lib/intel64 -lmkl_intel_ilp64 -lmkl_sequential -lmkl_core
 id        : emory

 Nodes     nprocs
 node23       3
 Number of processes for MPI-2 version of Molpro:   nprocs(total)=    4   nprocs(compute)=    3   nprocs(helper)=    1
 ga_uses_ma=false, calling ma_init with nominal heap.
 GA-space will be limited to   8.0 MW (determined by -G option)

 Using customized tuning parameters: mindgm=7; mindgv=32; mindgc=1; mindgr=1; noblas=0; mincuda=1000; minvec=7
 default implementation of scratch files=sf  

 ***,co2h2o
 memory,100,m
 basis avtz
 geomtype = xyz
 geometry = {
 6
       0.00000777
 O    10.97257393   -1.10347931    0.00000000
 O    11.76744404    1.08065151   -0.00000000
 O     0.04356282    0.00000000    0.00000000
 H    -0.70443226    0.58340495    0.10287003
 H     0.79598802    0.58686026    0.10347930
 C    11.34356282    0.00000000    0.00000000
 }
 hf
 ccsd(t)-f12
 ---

 Variables initialized (665), CPU time= 0.01 sec
 Commands  initialized (462), CPU time= 0.00 sec, 486 directives.
 Default parameters read. Elapsed time= 0.04 sec

 Checking input...
 Passed
1


                                         ***  PROGRAM SYSTEM MOLPRO  ***
                         Copyright, University College Cardiff Consultants Limited, 2008

                                    Version 2010.1 linked 9 Dec 2014 15:06:28 


 **********************************************************************************************************************************
 LABEL *   co2h2o                                                                        
 Linux-2.6.32-504.el6.x86_64/node23(x86_64) 64 bit mpp version                           DATE: 18-Jan-17          TIME: 21:29:00  
 **********************************************************************************************************************************

 Patch level:      19
 **********************************************************************************************************************************

 Variable memory set to  100000000 words,  buffer space   230000 words

 SETTING BASIS          =    AVTZ
 SETTING GEOMTYPE       =    XYZ

Geometry recognized as XYZ



 Recomputing integrals since basis changed


 Using spherical harmonics

 Library entry O      S aug-cc-pVTZ          selected for orbital group  1
 Library entry O      P aug-cc-pVTZ          selected for orbital group  1
 Library entry O      D aug-cc-pVTZ          selected for orbital group  1
 Library entry O      F aug-cc-pVTZ          selected for orbital group  1
 Library entry H      S aug-cc-pVTZ          selected for orbital group  2
 Library entry H      P aug-cc-pVTZ          selected for orbital group  2
 Library entry H      D aug-cc-pVTZ          selected for orbital group  2
 Library entry C      S aug-cc-pVTZ          selected for orbital group  3
 Library entry C      P aug-cc-pVTZ          selected for orbital group  3
 Library entry C      D aug-cc-pVTZ          selected for orbital group  3
 Library entry C      F aug-cc-pVTZ          selected for orbital group  3

1PROGRAM * SEWARD (Integral evaluation for generally contracted gaussian basis sets)     Author: Roland Lindh, 1990

 Geometry written to block  1 of record 700


 Point group  C1  



 ATOMIC COORDINATES

 NR  ATOM    CHARGE       X              Y              Z

   1  O       8.00   20.735159684   -2.085273688    0.000000000
   2  O       8.00   22.237246502    2.042135397    0.000000000
   3  O       8.00    0.082321799    0.000000000    0.000000000
   4  H       1.00   -1.331184050    1.102475579    0.194396184
   5  H       1.00    1.504199362    1.109005169    0.195547537
   6  C       6.00   21.436227084    0.000000000    0.000000000

 Bond lengths in Bohr (Angstrom)

 1-6  2.199968602  2-6  2.193615529  3-4  1.803119814  3-5  1.813799081
     (1.164173245)     (1.160811343)     (0.954169911)     (0.959821135)

 Bond angles

  1-6-2  177.16520951   4-3-5  103.24222917

 NUCLEAR CHARGE:                   32
 NUMBER OF PRIMITIVE AOS:         322
 NUMBER OF SYMMETRY AOS:          282
 NUMBER OF CONTRACTIONS:          230   ( 230A   )
 NUMBER OF CORE ORBITALS:           4   (   4A   )
 NUMBER OF VALENCE ORBITALS:       18   (  18A   )


 NUCLEAR REPULSION ENERGY   77.73648347


 Eigenvalues of metric

         1 0.350E-03 0.385E-03 0.393E-03 0.421E-03 0.904E-03 0.923E-03 0.164E-02 0.176E-02


 Contracted 2-electron integrals neglected if value below      1.0D-11
 AO integral compression algorithm  1   Integral accuracy      1.0D-11

     360.448 MB (compressed) written to integral file ( 20.2%)

     Node minimum: 105.120 MB, node maximum: 136.053 MB


 NUMBER OF SORTED TWO-ELECTRON INTEGRALS:  117629820.     BUFFER LENGTH:  32768
 NUMBER OF SEGMENTS:   8  SEGMENT LENGTH:   15997437      RECORD LENGTH: 524288

 Memory used in sort:      16.55 MW

 SORT1 READ   223055039. AND WROTE    24305473. INTEGRALS IN     74 RECORDS. CPU TIME:     1.80 SEC, REAL TIME:     2.09 SEC
 SORT2 READ    72553458. AND WROTE   352862895. INTEGRALS IN   1365 RECORDS. CPU TIME:     0.82 SEC, REAL TIME:     1.04 SEC

 Node minimum:   117612110.  Node maximum:   117629820. integrals

 OPERATOR DM      FOR CENTER  0  COORDINATES:    0.000000    0.000000    0.000000


 **********************************************************************************************************************************
 DATASETS  * FILE   NREC   LENGTH (MB)   RECORD NAMES
              1      18        4.62       500      610      700      900      950      970     1000      129      960     1100   
                                          VAR    BASINP    GEOM    SYMINP    ZMAT    AOBASIS   BASIS     P2S    ABASIS      S 
                                         1400     1410     1200     1210     1080     1600     1650     1700   
                                           T        V       H0       H01     AOSYM     SMH    MOLCAS    OPER   

 PROGRAMS   *        TOTAL       INT
 CPU TIMES  *         4.75      4.66
 REAL TIME  *         5.39 SEC
 DISK USED  *         1.24 GB      
 GA USED    *         0.00 MB       (max)       0.00 MB       (current)
 **********************************************************************************************************************************

1PROGRAM * RHF-SCF (CLOSED SHELL)       Authors: W. Meyer, H.-J. Werner


 NUMBER OF ELECTRONS:      16+   16-    SPACE SYMMETRY=1    SPIN SYMMETRY=Singlet 
 CONVERGENCE THRESHOLDS:    1.00E-05 (Density)    1.00E-07 (Energy)
 MAX. NUMBER OF ITERATIONS:       60
 INTERPOLATION TYPE:            DIIS
 INTERPOLATION STEPS:              2 (START)      1 (STEP)
 LEVEL SHIFTS:                  0.00 (CLOSED)  0.00 (OPEN) 



 Orbital guess generated from atomic densities. Full valence occupancy:   22

 Molecular orbital dump at record        2100.2

 ITERATION    DDIFF          GRAD             ENERGY        2-EL.EN.            DIPOLE MOMENTS         DIIS
    1      0.000D+00      0.000D+00      -263.65949356    350.850535   -0.06882    1.17033    0.19888    0
    2      0.000D+00      0.469D-02      -263.72500847    346.336302   -0.01097    0.67297    0.11722    1
    3      0.752D-02      0.319D-02      -263.76857416    348.887772   -0.03306    0.79874    0.13672    2
    4      0.310D-02      0.300D-03      -263.76907084    348.674480   -0.03228    0.80115    0.13759    3
    5      0.356D-03      0.874D-04      -263.76912941    348.677725   -0.03200    0.79702    0.13661    4
    6      0.133D-03      0.354D-04      -263.76913668    348.692058   -0.03212    0.79699    0.13676    5
    7      0.443D-04      0.873D-05      -263.76913743    348.683896   -0.03200    0.79698    0.13668    6
    8      0.145D-04      0.209D-05      -263.76913747    348.685018   -0.03211    0.79670    0.13669    7
    9      0.399D-05      0.124D-05      -263.76913748    348.685005   -0.03202    0.79694    0.13668    0

 Final occupancy:  16

 !RHF STATE 1.1 Energy               -263.769137477732
 Nuclear energy                        77.73648347
 One-electron energy                 -515.84812340
 Two-electron energy                  174.34250245
 Virial quotient                       -1.00179929
 !RHF STATE 1.1 Dipole moment          -0.03201680     0.79694400     0.13668165
 Dipole moment /Debye                  -0.08137326     2.02549694     0.34738736

 Orbital energies:

         1.1          2.1          3.1          4.1          5.1          6.1          7.1          8.1          9.1         10.1
    -20.654260   -20.653106   -20.567907   -11.462553    -1.531205    -1.477898    -1.354874    -0.801544    -0.743637    -0.715699

        11.1         12.1         13.1         14.1         15.1         16.1         17.1         18.1
     -0.715223    -0.715210    -0.587695    -0.544921    -0.544869    -0.510960     0.028989     0.044571


 **********************************************************************************************************************************
 DATASETS  * FILE   NREC   LENGTH (MB)   RECORD NAMES
              1      18        4.62       500      610      700      900      950      970     1000      129      960     1100   
                                          VAR    BASINP    GEOM    SYMINP    ZMAT    AOBASIS   BASIS     P2S    ABASIS      S 
                                         1400     1410     1200     1210     1080     1600     1650     1700   
                                           T        V       H0       H01     AOSYM     SMH    MOLCAS    OPER   

              2       3        1.44       700     1000     2100   
                                         GEOM     BASIS     RHF  

 PROGRAMS   *        TOTAL        HF       INT
 CPU TIMES  *        11.58      6.84      4.66
 REAL TIME  *        12.39 SEC
 DISK USED  *         1.27 GB      
 SF USED    *         0.21 MB      
 GA USED    *         0.00 MB       (max)       0.00 MB       (current)
 **********************************************************************************************************************************


1PROGRAM * CCSD (Closed-shell coupled cluster)     Authors: C. Hampel, H.-J. Werner, 1991, M. Deegan, P.J. Knowles, 1992

                                  CCSD-F12 implementation by  H.-J. Werner, 2007

                   Density fitting integral evaluation by F.R. Manby, 2003,2007, G. Knizia, 2010

 Basis set CC-PVTZ/JKFIT generated.      Number of basis functions:   376 
 Basis set AUG-CC-PVTZ/MP2FIT generated. Number of basis functions:   516 

 Convergence thresholds:  THRVAR = 1.00D-08  THRDEN = 1.00D-06

 CCSD(T)     terms to be evaluated (factor= 1.000)


 Number of core orbitals:           4 (   4 )
 Number of closed-shell orbitals:  12 (  12 )
 Number of external orbitals:     214 ( 214 )

 Molecular orbitals read from record     2100.2  Type=RHF/CANONICAL (state 1.1)

 MP2-F12 correlation treatment (H.-J. Werner, 2006)
 --------------------------------------------------

 Using MP2-F12 with ansatz 3C(FIX)

 Using projected zeroth-order Hamiltonian (+Z)

 FOCKRIB=T FOCKRIC=T FOCKRIP=T CABSP=T CABSA=T CABSK=T CABSF=T GBC=F EBC=F DMAT=T NOFIK=T NOPAO=1 SOLVE=-1  USEPAO=0
 EXCH_A= T EXCH_B= F EXCH_C= F EXCH_P= F
 
 Geminal basis:    OPTFULL  GEM_TYPE=SLATER  BETA=1.0  NGEM=6

 Optimizing Gaussian exponents for each gem_beta

 Geminal optimization for beta= 1.0000
 Weight function:   m=0, omega= 1.4646

 Augmented Hessian optimization of geminal fit. Trust ratio= 0.40000
 Convergence reached after   2 iterations. Final gradient= 8.24D-16, Step= 4.32D-06, Delta= 1.28D-09
 
 Alpha:                 0.19532     0.81920     2.85917     9.50073    35.69989   197.79328
 Coeff:                 0.27070     0.30552     0.18297     0.10986     0.06810     0.04224
 

 All pairs explicitly correlated. Number of r12-pairs:           78
 
 AO(A)-basis ORBITAL           loaded. Number of functions:     230
 RI(R)-basis CC-PVTZ/JKFIT     loaded. Number of functions:     376
 DF-basis CC-PVTZ/JKFIT        loaded. Number of functions:     376

 Screening thresholds:   THRAO=  1.00D-10  THRMO=  1.00D-09  THRPROD=  1.00D-09
                         THRSW=  1.00D-05  THROV=  1.00D-12  THRF12=   1.00D-08

 CPU time for Fock operators                      0.85 sec
 
 Construction of ABS:
 Smallest eigenvalue of S          2.58E-04  (threshold= 1.00E-08)
 Ratio eigmin/eigmax               1.84E-06  (threshold= 1.00E-09)
 Smallest eigenvalue of S kept     2.58E-04  (threshold= 2.58E-04, 0 functions deleted, 376 kept)
 
 Construction of CABS:
 Smallest eigenvalue of S          2.30E-08  (threshold= 1.00E-08)
 Ratio eigmin/eigmax               2.30E-08  (threshold= 1.00E-09)
 Smallest eigenvalue of S kept     2.30E-08  (threshold= 2.30E-08, 0 functions deleted, 376 kept)
 
 CPU time for CABS singles                        0.16 sec

 CABS-singles contribution of  -0.01593123 patched into reference energy.
 New reference energy        -263.78506871
 
 AO(A)-basis ORBITAL           loaded. Number of functions:     230
 RI(R)-basis CC-PVTZ/JKFIT     loaded. Number of functions:     376
 DF-basis AUG-CC-PVTZ/MP2FIT   loaded. Number of functions:     516

 Screening thresholds:   THRAO=  1.00D-10  THRMO=  1.00D-09  THRPROD=  1.00D-09
                         THRSW=  1.00D-05  THROV=  1.00D-12  THRF12=   1.00D-08

 CPU time for 3-index integral evaluation         1.53 sec
 CPU time for first  half transformation          0.12 sec (15704.4 MFLOP/sec)
 CPU time for second half transformation          0.05 sec ( 1930.2 MFLOP/sec)
 CPU time for sorting                             0.10 sec
 CPU time for fitting                             0.07 sec (19900.7 MFLOP/sec)
 CPU time for tilde quantities                    0.06 sec (30814.7 MFLOP/sec)
 CPU time for assembly                            0.73 sec (31627.0 MFLOP/sec)
 CPU time for tranop_f12                          0.86 sec (35324.2 MFLOP/sec)
 CPU time for f12 integrals (total)               5.56 sec
 F12-matrices built in  3 passes.
 F12-matrices built in  3 passes.
 F12-matrices built in  3 passes.
 F12-matrices built in  3 passes.
 FC-matrix built in  3 passes.
 CPU time for f12 matrices (total)                0.48 sec

 Diagonal F12 approximation with fixed coefficients:  TSING= 0.500,  TTRIP= 0.250 (scaled by -1/beta)

 DF-MP2-F12 energy corrections:
 ------------------------------
 Approx.                                    Singlet             Triplet             Total
 DF-MP2-F12/3*C(DX,FIX)                -0.097444320210     -0.016933733495     -0.114378053705
 DF-MP2-F12/3*C(FIX)                   -0.079853413215     -0.013394871408     -0.093248284623
 DF-MP2-F12/3C(FIX)                    -0.080214894090     -0.013418673480     -0.093633567570

 DF-MP2-F12 correlation energies:
 --------------------------------
 Approx.                                    Singlet             Triplet             Ecorr            Total Energy
 DF-MP2                                -0.537792488430     -0.343134279620     -0.880926768050   -264.665995473630
 DF-MP2-F12/3*C(DX,FIX)                -0.635236808640     -0.360068013116     -0.995304821755   -264.780373527335
 DF-MP2-F12/3*C(FIX)                   -0.617645901645     -0.356529151028     -0.974175052673   -264.759243758253
 DF-MP2-F12/3C(FIX)                    -0.618007382520     -0.356552953100     -0.974560335620   -264.759629041200

 SCS-DF-MP2 energies (F_SING= 1.20000  F_TRIP= 0.62222  F_PARALLEL= 0.33333):
 ----------------------------------------------------------------------------
 SCS-DF-MP2                            -0.858856760102   -264.643925465681
 SCS-DF-MP2-F12/3*C(DX,FIX)            -0.986326489640   -264.771395195219
 SCS-DF-MP2-F12/3*C(FIX)               -0.963015442613   -264.748084148193
 SCS-DF-MP2-F12/3C(FIX)                -0.963464029842   -264.748532735421
 Symmetry transformation completed.

 Number of N-1 electron functions:              12
 Number of N-2 electron functions:              78
 Number of singly external CSFs:              2568
 Number of doubly external CSFs:           3298596
 Total number of CSFs:                     3301165

 Pair and operator lists are different

 Length of J-op  integral file:             474.22 MB
 Length of K-op  integral file:             572.29 MB
 Length of 3-ext integral record:             0.00 MB

 For full I/O caching in triples, increase memory by 50.81 Mwords to 151.09 Mwords.

 Integral transformation finished. Total CPU:  11.19 sec, npass=  1  Memory used:  87.46 MW

 Reference energy:                   -263.78506871

 Adding F12 terms to K(Cij), methodcc=6,  factor=1.0

 ITER.      SQ.NORM     CORR.ENERGY   TOTAL ENERGY   ENERGY CHANGE        DEN1      VAR(S)    VAR(P)  DIIS     TIME
   1      1.20216992    -0.86285732  -264.64792603     0.01808580     0.04675039  0.72D-02  0.56D-02  1  1    24.69
   2      1.21649405    -0.85861806  -264.64368677     0.00423926    -0.02017039  0.86D-04  0.59D-03  2  2    30.72
   3      1.22185795    -0.85871333  -264.64378204    -0.00009527    -0.00236195  0.13D-03  0.32D-04  3  3    36.85
   4      1.22466453    -0.85858472  -264.64365343     0.00012861    -0.00141261  0.76D-05  0.41D-05  4  4    43.30
   5      1.22569780    -0.85854676  -264.64361547     0.00003797    -0.00036739  0.56D-06  0.29D-06  5  5    49.39
   6      1.22586049    -0.85851982  -264.64358853     0.00002694    -0.00000807  0.40D-07  0.24D-07  6  6    55.60
   7      1.22588999    -0.85851738  -264.64358608     0.00000244    -0.00000622  0.26D-08  0.40D-08  6  4    61.81
   8      1.22589034    -0.85851688  -264.64358559     0.00000050     0.00000193  0.40D-09  0.28D-09  6  1    68.91
   9      1.22589093    -0.85851695  -264.64358565    -0.00000007     0.00000058  0.27D-10  0.22D-10  6  2    75.12

 Norm of t1 vector:      0.10606677      S-energy:     0.00000025      T1 diagnostic:  0.01530942
                                                                       D1 diagnostic:  0.04500914

 Adding energy correction from Wij-K(Fij), methodcc=6  factor=1.0
 
  CCSD correlation energy              -0.858516947530
  MP2-F12 correction (uncoupled)       -0.092474987836
  C*T doubles correction               -0.001477534971
  f12b correction                       0.015405136121


 Total CPU time for triples:    197.51 sec


 RESULTS
 =======

  Reference energy                   -263.769137477733
  F12 singles correction               -0.015931227847

 F12 singles corrections added to reference energy

  New reference energy               -263.785068705580

  F12a singlet correction              -0.080415630746
  F12a triplet correction              -0.013536892061
  F12a total correction                -0.093952522807

 F12a corrections for ansatz F12/3C(FIX) added to CCSD energy
 
  CCSD-F12a singlet pair energy        -0.641931419532
  CCSD-F12a triplet pair energy        -0.310538297793
  CCSD-F12a correlation energy         -0.952469470337

  Triples (T) contribution             -0.037658785803
  Total correlation energy             -0.990128256141

  CCSD-F12a total energy             -264.737538175917
  CCSD[T]-F12a energy                -264.777745679583
  CCSD-T-F12a energy                 -264.774257755010
 !CCSD(T)-F12a total energy          -264.775196961720

 F12b corrections for ansatz F12/3C(FIX) added to CCSD(T)-F12a energy

  CCSD-F12b singlet pair energy        -0.627749408552
  CCSD-F12b triplet pair energy        -0.309315172651
  CCSD-F12b correlation energy         -0.937064334216

  Triples (T) contribution             -0.037658785803
  Total correlation energy             -0.974723120019

  CCSD-F12b total energy             -264.722133039796
  CCSD[T]-F12b energy                -264.762340543462
  CCSD-T-F12b energy                 -264.758852618888
 !CCSD(T)-F12b total energy          -264.759791825599

 Timing summary (sec):

 STEP                 CPU(USER)    SYS     CPU(TOT)    WALL
 Transformation         11.29      1.03     12.32     12.31
 CCSD iterations        56.24      2.60     58.84     58.87
 Triples               197.51      2.29    199.80    199.70
 MP2-F12                 7.60      1.19      8.79      8.79
 F12b energy             3.61      0.02      3.63      3.63

 Program statistics:

 Available memory in ccsd:                99998934
 Min. memory needed in ccsd:               8644845
 Max. memory used in ccsd:                11598633
 Max. memory used in cckext:               8768967 (10 integral passes)



 **********************************************************************************************************************************
 DATASETS  * FILE   NREC   LENGTH (MB)   RECORD NAMES
              1      20      527.84       500      610      700      900      950      970     1000      129      960     1100   
                                          VAR    BASINP    GEOM    SYMINP    ZMAT    AOBASIS   BASIS     P2S    ABASIS      S 
                                         1400     1410     1200     1210     1080     1600     1650     1700      960(1)  1380   
                                           T        V       H0       H01     AOSYM     SMH    MOLCAS    OPER    ABASIS    JKOP   

              2       5        2.50       700     1000     2100     7360     7350   
                                         GEOM     BASIS     RHF    F12ABS    EF12   

 PROGRAMS   *        TOTAL   CCSD(T)        HF       INT
 CPU TIMES  *       287.85    276.26      6.84      4.66
 REAL TIME  *       296.08 SEC
 DISK USED  *         2.14 GB      
 SF USED    *         1.91 GB      
 GA USED    *         2.40 MB       (max)       0.00 MB       (current)
 **********************************************************************************************************************************

     CCSD(T)-F12        HF-SCF  
   -264.75979183   -263.76913748
 **********************************************************************************************************************************
 Variable memory released
