
 Primary working directories    : /scratch/kee
 Secondary working directories  : /scratch/kee
 Wavefunction directory         : /home/kee/wfu/
 Main file repository           : /scratch/kee/

 ARCHNAME  : Linux/x86_64
 FC        : /opt/intel/composer_xe_2015.0.090/bin/intel64/ifort
 FCVERSION : 15.0.0
 BLASLIB   : -L/opt/intel/mkl/lib/intel64 -lmkl_intel_ilp64 -lmkl_sequential -lmkl_core
 id        : emory

 Nodes     nprocs
 node25       3
 Number of processes for MPI-2 version of Molpro:   nprocs(total)=    4   nprocs(compute)=    3   nprocs(helper)=    1
 ga_uses_ma=false, calling ma_init with nominal heap.
 GA-space will be limited to   8.0 MW (determined by -G option)

 Using customized tuning parameters: mindgm=7; mindgv=32; mindgc=1; mindgr=1; noblas=0; mincuda=1000; minvec=7
 default implementation of scratch files=sf  

 ***,co2h2o
 memory,100,m
 basis avtz
 geomtype = xyz
 geometry = {
 6
       0.00000000
 O     0.01288800    1.16233300    0.00000000
 O     0.01288800   -1.16233300    0.00000000
 O     5.15363900    0.00000000    0.00000000
 H     4.57249900    0.76306800    0.00000000
 H     4.57249900   -0.76306800    0.00000000
 C     0.00363900    0.00000000    0.00000000
 }
 hf
 ccsd(t)-f12
 ---

 Variables initialized (665), CPU time= 0.01 sec
 Commands  initialized (462), CPU time= 0.00 sec, 486 directives.
 Default parameters read. Elapsed time= 0.03 sec

 Checking input...
 Passed
1


                                         ***  PROGRAM SYSTEM MOLPRO  ***
                         Copyright, University College Cardiff Consultants Limited, 2008

                                    Version 2010.1 linked 9 Dec 2014 15:06:28 


 **********************************************************************************************************************************
 LABEL *   co2h2o                                                                        
 Linux-2.6.32-504.el6.x86_64/node25(x86_64) 64 bit mpp version                           DATE: 15-Dec-16          TIME: 00:13:21  
 **********************************************************************************************************************************

 Patch level:      19
 **********************************************************************************************************************************

 Variable memory set to  100000000 words,  buffer space   230000 words

 SETTING BASIS          =    AVTZ
 SETTING GEOMTYPE       =    XYZ

Geometry recognized as XYZ



 Recomputing integrals since basis changed


 Using spherical harmonics

 Library entry O      S aug-cc-pVTZ          selected for orbital group  1
 Library entry O      P aug-cc-pVTZ          selected for orbital group  1
 Library entry O      D aug-cc-pVTZ          selected for orbital group  1
 Library entry O      F aug-cc-pVTZ          selected for orbital group  1
 Library entry H      S aug-cc-pVTZ          selected for orbital group  2
 Library entry H      P aug-cc-pVTZ          selected for orbital group  2
 Library entry H      D aug-cc-pVTZ          selected for orbital group  2
 Library entry C      S aug-cc-pVTZ          selected for orbital group  3
 Library entry C      P aug-cc-pVTZ          selected for orbital group  3
 Library entry C      D aug-cc-pVTZ          selected for orbital group  3
 Library entry C      F aug-cc-pVTZ          selected for orbital group  3

1PROGRAM * SEWARD (Integral evaluation for generally contracted gaussian basis sets)     Author: Roland Lindh, 1990

 Geometry written to block  1 of record 700


 Point group  C2v 



 ATOMIC COORDINATES

 NR  ATOM    CHARGE       X              Y              Z

   1  O       8.00    0.024354790    2.196491044    0.000000000
   2  O       8.00    0.024354790   -2.196491044    0.000000000
   3  O       8.00    9.738966290    0.000000000    0.000000000
   4  H       1.00    8.640770846    1.441989540    0.000000000
   5  H       1.00    8.640770846   -1.441989540    0.000000000
   6  C       6.00    0.006876713    0.000000000    0.000000000

 Bond lengths in Bohr (Angstrom)

 1-6  2.196560581  2-6  2.196560581  3-4  1.812558155  3-5  1.812558155
     (1.162369798)     (1.162369798)     (0.959164466)     (0.959164466)

 Bond angles

  1-6-2  179.08818302   4-3-5  105.41539946

 NUCLEAR CHARGE:                   32
 NUMBER OF PRIMITIVE AOS:         322
 NUMBER OF SYMMETRY AOS:          282
 NUMBER OF CONTRACTIONS:          230   (  84A1  +  68B1  +  45B2  +  33A2  )
 NUMBER OF CORE ORBITALS:           4   (   3A1  +   1B1  +   0B2  +   0A2  )
 NUMBER OF VALENCE ORBITALS:       18   (   8A1  +   6B1  +   3B2  +   1A2  )


 NUCLEAR REPULSION ENERGY   90.16256854


 Eigenvalues of metric

         1 0.364E-03 0.373E-03 0.898E-03 0.159E-02 0.304E-02 0.320E-02 0.395E-02 0.443E-02
         2 0.335E-03 0.388E-03 0.919E-03 0.166E-02 0.173E-02 0.322E-02 0.481E-02 0.615E-02
         3 0.318E-02 0.579E-02 0.136E-01 0.292E-01 0.317E-01 0.363E-01 0.590E-01 0.641E-01
         4 0.348E-02 0.124E-01 0.296E-01 0.362E-01 0.558E-01 0.680E-01 0.111E+00 0.140E+00


 Contracted 2-electron integrals neglected if value below      1.0D-11
 AO integral compression algorithm  1   Integral accuracy      1.0D-11

     284.164 MB (compressed) written to integral file ( 31.7%)

     Node minimum: 93.585 MB, node maximum: 95.945 MB


 NUMBER OF SORTED TWO-ELECTRON INTEGRALS:   30156294.     BUFFER LENGTH:  32768
 NUMBER OF SEGMENTS:   2  SEGMENT LENGTH:   15999663      RECORD LENGTH: 524288

 Memory used in sort:      16.56 MW

 SORT1 READ   111985928. AND WROTE    20040448. INTEGRALS IN     59 RECORDS. CPU TIME:     2.12 SEC, REAL TIME:     2.36 SEC
 SORT2 READ    60725735. AND WROTE    90461370. INTEGRALS IN   1083 RECORDS. CPU TIME:     0.60 SEC, REAL TIME:     0.79 SEC

 Node minimum:    30151286.  Node maximum:    30156294. integrals

 OPERATOR DM      FOR CENTER  0  COORDINATES:    0.000000    0.000000    0.000000


 **********************************************************************************************************************************
 DATASETS  * FILE   NREC   LENGTH (MB)   RECORD NAMES
              1      18        3.24       500      610      700      900      950      970     1000      129      960     1100   
                                          VAR    BASINP    GEOM    SYMINP    ZMAT    AOBASIS   BASIS     P2S    ABASIS      S 
                                         1400     1410     1200     1210     1080     1600     1650     1700   
                                           T        V       H0       H01     AOSYM     SMH    MOLCAS    OPER   

 PROGRAMS   *        TOTAL       INT
 CPU TIMES  *         4.95      4.88
 REAL TIME  *         5.48 SEC
 DISK USED  *         1.00 GB      
 GA USED    *         0.00 MB       (max)       0.00 MB       (current)
 **********************************************************************************************************************************

1PROGRAM * RHF-SCF (CLOSED SHELL)       Authors: W. Meyer, H.-J. Werner


 NUMBER OF ELECTRONS:      16+   16-
 CONVERGENCE THRESHOLDS:    1.00E-05 (Density)    1.00E-07 (Energy)
 MAX. NUMBER OF ITERATIONS:       60
 INTERPOLATION TYPE:            DIIS
 INTERPOLATION STEPS:              2 (START)      1 (STEP)
 LEVEL SHIFTS:                  0.00 (CLOSED)  0.00 (OPEN) 



 Orbital guess generated from atomic densities. Full valence occupancy:   11   7   3   1

 Molecular orbital dump at record        2100.2

 Initial alpha occupancy:   8   5   2   1
 Initial beta  occupancy:   8   5   2   1
 Wave function symmetry:    1

 ITERATION    DDIFF          GRAD             ENERGY        2-EL.EN.            DIPOLE MOMENTS         DIIS
    1      0.000D+00      0.000D+00      -263.65943620    375.181980   -1.15257    0.00000    0.00000    0
    2      0.000D+00      0.883D-02      -263.72481234    370.913968   -0.68905    0.00000    0.00000    1
    3      0.142D-01      0.601D-02      -263.76863179    373.402472   -0.80249    0.00000    0.00000    2
    4      0.585D-02      0.562D-03      -263.76912744    373.185024   -0.80566    0.00000    0.00000    3
    5      0.690D-03      0.163D-03      -263.76918542    373.191756   -0.80044    0.00000    0.00000    4
    6      0.256D-03      0.656D-04      -263.76919251    373.205530   -0.80116    0.00000    0.00000    5
    7      0.845D-04      0.162D-04      -263.76919324    373.197442   -0.80069    0.00000    0.00000    6
    8      0.279D-04      0.356D-05      -263.76919329    373.198736   -0.80069    0.00000    0.00000    7
    9      0.764D-05      0.119D-05      -263.76919329    373.198567   -0.80066    0.00000    0.00000    0

 Final occupancy:   8   5   2   1

 !RHF STATE 1.1 Energy               -263.769193289660
 Nuclear energy                        90.16256854
 One-electron energy                 -540.53104543
 Two-electron energy                  186.59928360
 Virial quotient                       -1.00184204
 !RHF STATE 1.1 Dipole moment          -0.80066002     0.00000000     0.00000000
 Dipole moment /Debye                  -2.03494149     0.00000000     0.00000000

 Orbital energies:

         1.1          2.1          3.1          4.1          5.1          6.1          7.1          8.1          9.1         10.1
    -20.661091   -20.569107   -11.469860    -1.538625    -1.353921    -0.808830    -0.722856    -0.584672     0.026990     0.053658

         1.2          2.2          3.2          4.2          5.2          6.2          7.2
    -20.661136    -1.485553    -0.751005    -0.720407    -0.552426     0.048528     0.084203

         1.3          2.3          3.3          4.3
     -0.722630    -0.511824     0.067658     0.160061

         1.4          2.4          3.4
     -0.552297     0.157522     0.266793


 **********************************************************************************************************************************
 DATASETS  * FILE   NREC   LENGTH (MB)   RECORD NAMES
              1      18        3.25       500      610      700      900      950      970     1000      129      960     1100   
                                          VAR    BASINP    GEOM    SYMINP    ZMAT    AOBASIS   BASIS     P2S    ABASIS      S 
                                         1400     1410     1200     1210     1080     1600     1650     1700   
                                           T        V       H0       H01     AOSYM     SMH    MOLCAS    OPER   

              2       3        0.68       700     1000     2100   
                                         GEOM     BASIS     RHF  

 PROGRAMS   *        TOTAL        HF       INT
 CPU TIMES  *         6.30      1.35      4.88
 REAL TIME  *         6.94 SEC
 DISK USED  *         1.02 GB      
 SF USED    *         0.06 MB      
 GA USED    *         0.00 MB       (max)       0.00 MB       (current)
 **********************************************************************************************************************************


1PROGRAM * CCSD (Closed-shell coupled cluster)     Authors: C. Hampel, H.-J. Werner, 1991, M. Deegan, P.J. Knowles, 1992

                                  CCSD-F12 implementation by  H.-J. Werner, 2007

                   Density fitting integral evaluation by F.R. Manby, 2003,2007, G. Knizia, 2010

 Basis set CC-PVTZ/JKFIT generated.      Number of basis functions:   376 
 Basis set AUG-CC-PVTZ/MP2FIT generated. Number of basis functions:   516 

 Convergence thresholds:  THRVAR = 1.00D-08  THRDEN = 1.00D-06

 CCSD(T)     terms to be evaluated (factor= 1.000)


 Number of core orbitals:           4 (   3   1   0   0 )
 Number of closed-shell orbitals:  12 (   5   4   2   1 )
 Number of external orbitals:     214 (  76  63  43  32 )

 Molecular orbitals read from record     2100.2  Type=RHF/CANONICAL (state 1.1)

 MP2-F12 correlation treatment (H.-J. Werner, 2006)
 --------------------------------------------------

 Using MP2-F12 with ansatz 3C(FIX)

 Using projected zeroth-order Hamiltonian (+Z)

 FOCKRIB=T FOCKRIC=T FOCKRIP=T CABSP=T CABSA=T CABSK=T CABSF=T GBC=F EBC=F DMAT=T NOFIK=T NOPAO=1 SOLVE=-1  USEPAO=0
 EXCH_A= T EXCH_B= F EXCH_C= F EXCH_P= F
 
 Geminal basis:    OPTFULL  GEM_TYPE=SLATER  BETA=1.0  NGEM=6

 Optimizing Gaussian exponents for each gem_beta

 Geminal optimization for beta= 1.0000
 Weight function:   m=0, omega= 1.4646

 Augmented Hessian optimization of geminal fit. Trust ratio= 0.40000
 Convergence reached after   2 iterations. Final gradient= 8.24D-16, Step= 4.32D-06, Delta= 1.28D-09
 
 Alpha:                 0.19532     0.81920     2.85917     9.50073    35.69989   197.79328
 Coeff:                 0.27070     0.30552     0.18297     0.10986     0.06810     0.04224
 

 Symmetry turned off. Reference energy:       -263.769193289660

 All pairs explicitly correlated. Number of r12-pairs:           78
 
 AO(A)-basis ORBITAL           loaded. Number of functions:     230
 RI(R)-basis CC-PVTZ/JKFIT     loaded. Number of functions:     376
 DF-basis CC-PVTZ/JKFIT        loaded. Number of functions:     376

 Screening thresholds:   THRAO=  1.00D-10  THRMO=  1.00D-09  THRPROD=  1.00D-09
                         THRSW=  1.00D-05  THROV=  1.00D-12  THRF12=   1.00D-08

 CPU time for Fock operators                      0.90 sec
 
 Construction of ABS:
 Smallest eigenvalue of S          2.57E-04  (threshold= 1.00E-08)
 Ratio eigmin/eigmax               1.83E-06  (threshold= 1.00E-09)
 Smallest eigenvalue of S kept     2.57E-04  (threshold= 2.57E-04, 0 functions deleted, 376 kept)
 
 Construction of CABS:
 Smallest eigenvalue of S          2.29E-08  (threshold= 1.00E-08)
 Ratio eigmin/eigmax               2.29E-08  (threshold= 1.00E-09)
 Smallest eigenvalue of S kept     2.29E-08  (threshold= 2.29E-08, 0 functions deleted, 376 kept)
 
 CPU time for CABS singles                        0.15 sec

 CABS-singles contribution of  -0.01592730 patched into reference energy.
 New reference energy        -263.78512059
 
 AO(A)-basis ORBITAL           loaded. Number of functions:     230
 RI(R)-basis CC-PVTZ/JKFIT     loaded. Number of functions:     376
 DF-basis AUG-CC-PVTZ/MP2FIT   loaded. Number of functions:     516

 Screening thresholds:   THRAO=  1.00D-10  THRMO=  1.00D-09  THRPROD=  1.00D-09
                         THRSW=  1.00D-05  THROV=  1.00D-12  THRF12=   1.00D-08

 CPU time for 3-index integral evaluation         2.59 sec
 CPU time for first  half transformation          0.30 sec (10056.9 MFLOP/sec)
 CPU time for second half transformation          0.01 sec (10361.8 MFLOP/sec)
 CPU time for sorting                             0.14 sec
 CPU time for fitting                             0.06 sec (23217.5 MFLOP/sec)
 CPU time for tilde quantities                    0.06 sec (30814.7 MFLOP/sec)
 CPU time for assembly                            0.77 sec (30756.4 MFLOP/sec)
 CPU time for tranop_f12                          0.90 sec (33557.1 MFLOP/sec)
 CPU time for f12 integrals (total)               6.80 sec
 F12-matrices built in  3 passes.
 F12-matrices built in  3 passes.
 F12-matrices built in  3 passes.
 F12-matrices built in  3 passes.
 FC-matrix built in  3 passes.
 CPU time for f12 matrices (total)                0.49 sec

 Diagonal F12 approximation with fixed coefficients:  TSING= 0.500,  TTRIP= 0.250 (scaled by -1/beta)

 DF-MP2-F12 energy corrections:
 ------------------------------
 Approx.                                    Singlet             Triplet             Total
 DF-MP2-F12/3*C(DX,FIX)                -0.097417663620     -0.016928078053     -0.114345741673
 DF-MP2-F12/3*C(FIX)                   -0.079838091124     -0.013391406102     -0.093229497226
 DF-MP2-F12/3C(FIX)                    -0.080201352783     -0.013415546896     -0.093616899679

 DF-MP2-F12 correlation energies:
 --------------------------------
 Approx.                                    Singlet             Triplet             Ecorr            Total Energy
 DF-MP2                                -0.537863551096     -0.343233602906     -0.881097154002   -264.666217748388
 DF-MP2-F12/3*C(DX,FIX)                -0.635281214716     -0.360161680959     -0.995442895675   -264.780563490061
 DF-MP2-F12/3*C(FIX)                   -0.617701642220     -0.356625009008     -0.974326651228   -264.759447245615
 DF-MP2-F12/3C(FIX)                    -0.618064903879     -0.356649149802     -0.974714053681   -264.759834648067

 SCS-DF-MP2 energies (F_SING= 1.20000  F_TRIP= 0.62222  F_PARALLEL= 0.33333):
 ----------------------------------------------------------------------------
 SCS-DF-MP2                            -0.859003836456   -264.644124430843
 SCS-DF-MP2-F12/3*C(DX,FIX)            -0.986438059145   -264.771558653531
 SCS-DF-MP2-F12/3*C(FIX)               -0.963141976269   -264.748262570656
 SCS-DF-MP2-F12/3C(FIX)                -0.963592911198   -264.748713505585

 Symmetry restored.
 Symmetry transformation completed.

 Number of N-1 electron functions:              12
 Number of N-2 electron functions:              78
 Number of singly external CSFs:               750
 Number of doubly external CSFs:            844332
 Total number of CSFs:                      845083

 Pair and operator lists are different

 Length of J-op  integral file:             462.28 MB
 Length of K-op  integral file:             502.25 MB
 Length of 3-ext integral record:             0.00 MB

 Memory could be reduced to 38.71 Mwords without degradation in triples

 Integral transformation finished. Total CPU:   1.40 sec, npass=  1  Memory used:   7.09 MW

 Reference energy:                   -263.78512059

 Adding F12 terms to K(Cij), methodcc=6,  factor=1.0

 ITER.      SQ.NORM     CORR.ENERGY   TOTAL ENERGY   ENERGY CHANGE        DEN1      VAR(S)    VAR(P)  DIIS     TIME
   1      1.20227860    -0.86300327  -264.64812387     0.01810994     0.04678553  0.72D-02  0.56D-02  1  1    10.98
   2      1.21661460    -0.85876641  -264.64388701     0.00423686    -0.02018056  0.86D-04  0.59D-03  2  2    11.92
   3      1.22198419    -0.85886247  -264.64398306    -0.00009605    -0.00236590  0.13D-03  0.33D-04  3  3    12.88
   4      1.22479152    -0.85873390  -264.64385449     0.00012857    -0.00141310  0.76D-05  0.41D-05  4  4    13.83
   5      1.22582438    -0.85869603  -264.64381662     0.00003787    -0.00036710  0.56D-06  0.29D-06  5  5    14.79
   6      1.22598736    -0.85866913  -264.64378972     0.00002690    -0.00000809  0.40D-07  0.24D-07  6  6    15.76
   7      1.22601696    -0.85866670  -264.64378729     0.00000243    -0.00000626  0.25D-08  0.40D-08  6  4    16.74
   8      1.22601732    -0.85866621  -264.64378681     0.00000048     0.00000195  0.40D-09  0.27D-09  6  1    17.72
   9      1.22601795    -0.85866628  -264.64378687    -0.00000007     0.00000056  0.27D-10  0.22D-10  6  2    18.69

 Norm of t1 vector:      0.10606924      S-energy:    -0.00000003      T1 diagnostic:  0.01530978
                                                                       D1 diagnostic:  0.04498453

 Adding energy correction from Wij-K(Fij), methodcc=6  factor=1.0
 
  CCSD correlation energy              -0.858666279063
  MP2-F12 correction (uncoupled)       -0.092458041880
  C*T doubles correction               -0.001475299484
  f12b correction                       0.015406003220


 Total CPU time for triples:     27.50 sec


 RESULTS
 =======

  Reference energy                   -263.769193289660
  F12 singles correction               -0.015927304726

 F12 singles corrections added to reference energy

  New reference energy               -263.785120594387

  F12a singlet correction              -0.080399832486
  F12a triplet correction              -0.013533508878
  F12a total correction                -0.093933341364

 F12a corrections for ansatz F12/3C(FIX) added to CCSD energy
 
  CCSD-F12a singlet pair energy        -0.641985167884
  CCSD-F12a triplet pair energy        -0.310614426928
  CCSD-F12a correlation energy         -0.952599620427

  Triples (T) contribution             -0.037688615254
  Total correlation energy             -0.990288235681

  CCSD-F12a total energy             -264.737720214813
  CCSD[T]-F12a energy                -264.777959366939
  CCSD-T-F12a energy                 -264.774468916406
 !CCSD(T)-F12a total energy          -264.775408830067

 F12b corrections for ansatz F12/3C(FIX) added to CCSD(T)-F12a energy

  CCSD-F12b singlet pair energy        -0.627802398300
  CCSD-F12b triplet pair energy        -0.309391193292
  CCSD-F12b correlation energy         -0.937193617206

  Triples (T) contribution             -0.037688615254
  Total correlation energy             -0.974882232460

  CCSD-F12b total energy             -264.722314211593
  CCSD[T]-F12b energy                -264.762553363719
  CCSD-T-F12b energy                 -264.759062913186
 !CCSD(T)-F12b total energy          -264.760002826847

 Timing summary (sec):

 STEP                 CPU(USER)    SYS     CPU(TOT)    WALL
 Transformation          1.41      0.19      1.60      1.60
 CCSD iterations         8.62      0.66      9.28      9.27
 Triples                27.50      0.75     28.25     28.24
 MP2-F12                 8.68      1.12      9.80      9.81
 F12b energy             0.59      0.02      0.61      0.61

 Program statistics:

 Available memory in ccsd:                99998934
 Min. memory needed in ccsd:               2252999
 Max. memory used in ccsd:                 3011949
 Max. memory used in cckext:               2777209 (10 integral passes)



 **********************************************************************************************************************************
 DATASETS  * FILE   NREC   LENGTH (MB)   RECORD NAMES
              1      20      137.17       500      610      700      900      950      970     1000      129      960     1100   
                                          VAR    BASINP    GEOM    SYMINP    ZMAT    AOBASIS   BASIS     P2S    ABASIS      S 
                                         1400     1410     1200     1210     1080     1600     1650     1700      960(1)  1380   
                                           T        V       H0       H01     AOSYM     SMH    MOLCAS    OPER    ABASIS    JKOP   

              2       5        0.98       700     1000     2100     7360     7350   
                                         GEOM     BASIS     RHF    F12ABS    EF12   

 PROGRAMS   *        TOTAL   CCSD(T)        HF       INT
 CPU TIMES  *        53.12     46.82      1.35      4.88
 REAL TIME  *        56.70 SEC
 DISK USED  *         1.24 GB      
 SF USED    *         1.34 GB      
 GA USED    *         2.40 MB       (max)       0.00 MB       (current)
 **********************************************************************************************************************************

     CCSD(T)-F12        HF-SCF  
   -264.76000283   -263.76919329
 **********************************************************************************************************************************
 Variable memory released
