
 Primary working directories    : /scratch/kee
 Secondary working directories  : /scratch/kee
 Wavefunction directory         : /home/kee/wfu/
 Main file repository           : /scratch/kee/

 ARCHNAME  : Linux/x86_64
 FC        : /opt/intel/composer_xe_2015.0.090/bin/intel64/ifort
 FCVERSION : 15.0.0
 BLASLIB   : -L/opt/intel/mkl/lib/intel64 -lmkl_intel_ilp64 -lmkl_sequential -lmkl_core
 id        : emory

 Nodes     nprocs
 node25       3
 Number of processes for MPI-2 version of Molpro:   nprocs(total)=    4   nprocs(compute)=    3   nprocs(helper)=    1
 ga_uses_ma=false, calling ma_init with nominal heap.
 GA-space will be limited to   8.0 MW (determined by -G option)

 Using customized tuning parameters: mindgm=7; mindgv=32; mindgc=1; mindgr=1; noblas=0; mincuda=1000; minvec=7
 default implementation of scratch files=sf  

 ***,co2h2o
 memory,100,m
 basis avtz
 geomtype = xyz
 geometry = {
 6
       0.00000000
 O     0.01288800    1.16233300    0.00000000
 O     0.01288800   -1.16233300    0.00000000
 O     5.40363900    0.00000000    0.00000000
 H     4.82249900    0.76306800    0.00000000
 H     4.82249900   -0.76306800    0.00000000
 C     0.00363900    0.00000000    0.00000000
 }
 hf
 ccsd(t)-f12
 ---

 Variables initialized (665), CPU time= 0.00 sec
 Commands  initialized (462), CPU time= 0.01 sec, 486 directives.
 Default parameters read. Elapsed time= 0.04 sec

 Checking input...
 Passed
1


                                         ***  PROGRAM SYSTEM MOLPRO  ***
                         Copyright, University College Cardiff Consultants Limited, 2008

                                    Version 2010.1 linked 9 Dec 2014 15:06:28 


 **********************************************************************************************************************************
 LABEL *   co2h2o                                                                        
 Linux-2.6.32-504.el6.x86_64/node25(x86_64) 64 bit mpp version                           DATE: 15-Dec-16          TIME: 00:18:06  
 **********************************************************************************************************************************

 Patch level:      19
 **********************************************************************************************************************************

 Variable memory set to  100000000 words,  buffer space   230000 words

 SETTING BASIS          =    AVTZ
 SETTING GEOMTYPE       =    XYZ

Geometry recognized as XYZ



 Recomputing integrals since basis changed


 Using spherical harmonics

 Library entry O      S aug-cc-pVTZ          selected for orbital group  1
 Library entry O      P aug-cc-pVTZ          selected for orbital group  1
 Library entry O      D aug-cc-pVTZ          selected for orbital group  1
 Library entry O      F aug-cc-pVTZ          selected for orbital group  1
 Library entry H      S aug-cc-pVTZ          selected for orbital group  2
 Library entry H      P aug-cc-pVTZ          selected for orbital group  2
 Library entry H      D aug-cc-pVTZ          selected for orbital group  2
 Library entry C      S aug-cc-pVTZ          selected for orbital group  3
 Library entry C      P aug-cc-pVTZ          selected for orbital group  3
 Library entry C      D aug-cc-pVTZ          selected for orbital group  3
 Library entry C      F aug-cc-pVTZ          selected for orbital group  3

1PROGRAM * SEWARD (Integral evaluation for generally contracted gaussian basis sets)     Author: Roland Lindh, 1990

 Geometry written to block  1 of record 700


 Point group  C2v 



 ATOMIC COORDINATES

 NR  ATOM    CHARGE       X              Y              Z

   1  O       8.00    0.024354790    2.196491044    0.000000000
   2  O       8.00    0.024354790   -2.196491044    0.000000000
   3  O       8.00   10.211397823    0.000000000    0.000000000
   4  H       1.00    9.113202379    1.441989540    0.000000000
   5  H       1.00    9.113202379   -1.441989540    0.000000000
   6  C       6.00    0.006876713    0.000000000    0.000000000

 Bond lengths in Bohr (Angstrom)

 1-6  2.196560581  2-6  2.196560581  3-4  1.812558155  3-5  1.812558155
     (1.162369798)     (1.162369798)     (0.959164466)     (0.959164466)

 Bond angles

  1-6-2  179.08818302   4-3-5  105.41539946

 NUCLEAR CHARGE:                   32
 NUMBER OF PRIMITIVE AOS:         322
 NUMBER OF SYMMETRY AOS:          282
 NUMBER OF CONTRACTIONS:          230   (  84A1  +  68B1  +  45B2  +  33A2  )
 NUMBER OF CORE ORBITALS:           4   (   3A1  +   1B1  +   0B2  +   0A2  )
 NUMBER OF VALENCE ORBITALS:       18   (   8A1  +   6B1  +   3B2  +   1A2  )


 NUCLEAR REPULSION ENERGY   89.12415590


 Eigenvalues of metric

         1 0.369E-03 0.377E-03 0.899E-03 0.165E-02 0.309E-02 0.320E-02 0.398E-02 0.451E-02
         2 0.338E-03 0.389E-03 0.921E-03 0.166E-02 0.174E-02 0.327E-02 0.491E-02 0.618E-02
         3 0.318E-02 0.584E-02 0.136E-01 0.293E-01 0.317E-01 0.364E-01 0.590E-01 0.641E-01
         4 0.348E-02 0.124E-01 0.296E-01 0.362E-01 0.559E-01 0.680E-01 0.111E+00 0.140E+00


 Contracted 2-electron integrals neglected if value below      1.0D-11
 AO integral compression algorithm  1   Integral accuracy      1.0D-11

     270.795 MB (compressed) written to integral file ( 30.3%)

     Node minimum: 87.556 MB, node maximum: 92.275 MB


 NUMBER OF SORTED TWO-ELECTRON INTEGRALS:   30156294.     BUFFER LENGTH:  32768
 NUMBER OF SEGMENTS:   2  SEGMENT LENGTH:   15999663      RECORD LENGTH: 524288

 Memory used in sort:      16.56 MW

 SORT1 READ   111790672. AND WROTE    18939624. INTEGRALS IN     55 RECORDS. CPU TIME:     2.04 SEC, REAL TIME:     2.27 SEC
 SORT2 READ    57393829. AND WROTE    90461370. INTEGRALS IN   1002 RECORDS. CPU TIME:     0.57 SEC, REAL TIME:     0.76 SEC

 Node minimum:    30151286.  Node maximum:    30156294. integrals

 OPERATOR DM      FOR CENTER  0  COORDINATES:    0.000000    0.000000    0.000000


 **********************************************************************************************************************************
 DATASETS  * FILE   NREC   LENGTH (MB)   RECORD NAMES
              1      18        3.24       500      610      700      900      950      970     1000      129      960     1100   
                                          VAR    BASINP    GEOM    SYMINP    ZMAT    AOBASIS   BASIS     P2S    ABASIS      S 
                                         1400     1410     1200     1210     1080     1600     1650     1700   
                                           T        V       H0       H01     AOSYM     SMH    MOLCAS    OPER   

 PROGRAMS   *        TOTAL       INT
 CPU TIMES  *         4.94      4.87
 REAL TIME  *         5.69 SEC
 DISK USED  *       948.35 MB      
 GA USED    *         0.00 MB       (max)       0.00 MB       (current)
 **********************************************************************************************************************************

1PROGRAM * RHF-SCF (CLOSED SHELL)       Authors: W. Meyer, H.-J. Werner


 NUMBER OF ELECTRONS:      16+   16-
 CONVERGENCE THRESHOLDS:    1.00E-05 (Density)    1.00E-07 (Energy)
 MAX. NUMBER OF ITERATIONS:       60
 INTERPOLATION TYPE:            DIIS
 INTERPOLATION STEPS:              2 (START)      1 (STEP)
 LEVEL SHIFTS:                  0.00 (CLOSED)  0.00 (OPEN) 



 Orbital guess generated from atomic densities. Full valence occupancy:   11   7   3   1

 Molecular orbital dump at record        2100.2

 Initial alpha occupancy:   8   5   2   1
 Initial beta  occupancy:   8   5   2   1
 Wave function symmetry:    1

 ITERATION    DDIFF          GRAD             ENERGY        2-EL.EN.            DIPOLE MOMENTS         DIIS
    1      0.000D+00      0.000D+00      -263.65955415    373.156964   -1.15241    0.00000    0.00000    0
    2      0.000D+00      0.883D-02      -263.72491054    368.863357   -0.68718    0.00000    0.00000    1
    3      0.142D-01      0.601D-02      -263.76866435    371.358332   -0.80090    0.00000    0.00000    2
    4      0.585D-02      0.562D-03      -263.76915999    371.141383   -0.80418    0.00000    0.00000    3
    5      0.690D-03      0.164D-03      -263.76921798    371.147741   -0.79893    0.00000    0.00000    4
    6      0.256D-03      0.657D-04      -263.76922508    371.161566   -0.79964    0.00000    0.00000    5
    7      0.845D-04      0.162D-04      -263.76922581    371.153461   -0.79918    0.00000    0.00000    6
    8      0.279D-04      0.356D-05      -263.76922586    371.154755   -0.79918    0.00000    0.00000    7
    9      0.763D-05      0.119D-05      -263.76922586    371.154585   -0.79915    0.00000    0.00000    0

 Final occupancy:   8   5   2   1

 !RHF STATE 1.1 Energy               -263.769225863194
 Nuclear energy                        89.12415590
 One-electron energy                 -538.47067425
 Two-electron energy                  185.57729249
 Virial quotient                       -1.00184261
 !RHF STATE 1.1 Dipole moment          -0.79914849     0.00000000     0.00000000
 Dipole moment /Debye                  -2.03109982     0.00000000     0.00000000

 Orbital energies:

         1.1          2.1          3.1          4.1          5.1          6.1          7.1          8.1          9.1         10.1
    -20.660452   -20.568856   -11.469232    -1.537984    -1.353670    -0.808208    -0.722192    -0.584435     0.026449     0.053037

         1.2          2.2          3.2          4.2          5.2          6.2          7.2
    -20.660497    -1.484914    -0.750387    -0.720172    -0.551781     0.048070     0.083543

         1.3          2.3          3.3          4.3
     -0.722005    -0.511585     0.067784     0.159525

         1.4          2.4          3.4
     -0.551675     0.157987     0.265929


 **********************************************************************************************************************************
 DATASETS  * FILE   NREC   LENGTH (MB)   RECORD NAMES
              1      18        3.25       500      610      700      900      950      970     1000      129      960     1100   
                                          VAR    BASINP    GEOM    SYMINP    ZMAT    AOBASIS   BASIS     P2S    ABASIS      S 
                                         1400     1410     1200     1210     1080     1600     1650     1700   
                                           T        V       H0       H01     AOSYM     SMH    MOLCAS    OPER   

              2       3        0.68       700     1000     2100   
                                         GEOM     BASIS     RHF  

 PROGRAMS   *        TOTAL        HF       INT
 CPU TIMES  *         6.31      1.37      4.87
 REAL TIME  *         7.18 SEC
 DISK USED  *       965.85 MB      
 SF USED    *         0.06 MB      
 GA USED    *         0.00 MB       (max)       0.00 MB       (current)
 **********************************************************************************************************************************


1PROGRAM * CCSD (Closed-shell coupled cluster)     Authors: C. Hampel, H.-J. Werner, 1991, M. Deegan, P.J. Knowles, 1992

                                  CCSD-F12 implementation by  H.-J. Werner, 2007

                   Density fitting integral evaluation by F.R. Manby, 2003,2007, G. Knizia, 2010

 Basis set CC-PVTZ/JKFIT generated.      Number of basis functions:   376 
 Basis set AUG-CC-PVTZ/MP2FIT generated. Number of basis functions:   516 

 Convergence thresholds:  THRVAR = 1.00D-08  THRDEN = 1.00D-06

 CCSD(T)     terms to be evaluated (factor= 1.000)


 Number of core orbitals:           4 (   3   1   0   0 )
 Number of closed-shell orbitals:  12 (   5   4   2   1 )
 Number of external orbitals:     214 (  76  63  43  32 )

 Molecular orbitals read from record     2100.2  Type=RHF/CANONICAL (state 1.1)

 MP2-F12 correlation treatment (H.-J. Werner, 2006)
 --------------------------------------------------

 Using MP2-F12 with ansatz 3C(FIX)

 Using projected zeroth-order Hamiltonian (+Z)

 FOCKRIB=T FOCKRIC=T FOCKRIP=T CABSP=T CABSA=T CABSK=T CABSF=T GBC=F EBC=F DMAT=T NOFIK=T NOPAO=1 SOLVE=-1  USEPAO=0
 EXCH_A= T EXCH_B= F EXCH_C= F EXCH_P= F
 
 Geminal basis:    OPTFULL  GEM_TYPE=SLATER  BETA=1.0  NGEM=6

 Optimizing Gaussian exponents for each gem_beta

 Geminal optimization for beta= 1.0000
 Weight function:   m=0, omega= 1.4646

 Augmented Hessian optimization of geminal fit. Trust ratio= 0.40000
 Convergence reached after   2 iterations. Final gradient= 8.24D-16, Step= 4.32D-06, Delta= 1.28D-09
 
 Alpha:                 0.19532     0.81920     2.85917     9.50073    35.69989   197.79328
 Coeff:                 0.27070     0.30552     0.18297     0.10986     0.06810     0.04224
 

 Symmetry turned off. Reference energy:       -263.769225863194

 All pairs explicitly correlated. Number of r12-pairs:           78
 
 AO(A)-basis ORBITAL           loaded. Number of functions:     230
 RI(R)-basis CC-PVTZ/JKFIT     loaded. Number of functions:     376
 DF-basis CC-PVTZ/JKFIT        loaded. Number of functions:     376

 Screening thresholds:   THRAO=  1.00D-10  THRMO=  1.00D-09  THRPROD=  1.00D-09
                         THRSW=  1.00D-05  THROV=  1.00D-12  THRF12=   1.00D-08

 CPU time for Fock operators                      0.90 sec
 
 Construction of ABS:
 Smallest eigenvalue of S          2.57E-04  (threshold= 1.00E-08)
 Ratio eigmin/eigmax               1.83E-06  (threshold= 1.00E-09)
 Smallest eigenvalue of S kept     2.57E-04  (threshold= 2.57E-04, 0 functions deleted, 376 kept)
 
 Construction of CABS:
 Smallest eigenvalue of S          2.29E-08  (threshold= 1.00E-08)
 Ratio eigmin/eigmax               2.29E-08  (threshold= 1.00E-09)
 Smallest eigenvalue of S kept     2.29E-08  (threshold= 2.29E-08, 0 functions deleted, 376 kept)
 
 CPU time for CABS singles                        0.16 sec

 CABS-singles contribution of  -0.01592756 patched into reference energy.
 New reference energy        -263.78515342
 
 AO(A)-basis ORBITAL           loaded. Number of functions:     230
 RI(R)-basis CC-PVTZ/JKFIT     loaded. Number of functions:     376
 DF-basis AUG-CC-PVTZ/MP2FIT   loaded. Number of functions:     516

 Screening thresholds:   THRAO=  1.00D-10  THRMO=  1.00D-09  THRPROD=  1.00D-09
                         THRSW=  1.00D-05  THROV=  1.00D-12  THRF12=   1.00D-08

 CPU time for 3-index integral evaluation         2.41 sec
 CPU time for first  half transformation          0.22 sec (13559.0 MFLOP/sec)
 CPU time for second half transformation          0.01 sec (11314.8 MFLOP/sec)
 CPU time for sorting                             0.16 sec
 CPU time for fitting                             0.05 sec (27861.0 MFLOP/sec)
 CPU time for tilde quantities                    0.05 sec (36977.6 MFLOP/sec)
 CPU time for assembly                            0.77 sec (31290.9 MFLOP/sec)
 CPU time for tranop_f12                          0.86 sec (34562.0 MFLOP/sec)
 CPU time for f12 integrals (total)               6.50 sec
 F12-matrices built in  3 passes.
 F12-matrices built in  3 passes.
 F12-matrices built in  3 passes.
 F12-matrices built in  3 passes.
 FC-matrix built in  3 passes.
 CPU time for f12 matrices (total)                0.46 sec

 Diagonal F12 approximation with fixed coefficients:  TSING= 0.500,  TTRIP= 0.250 (scaled by -1/beta)

 DF-MP2-F12 energy corrections:
 ------------------------------
 Approx.                                    Singlet             Triplet             Total
 DF-MP2-F12/3*C(DX,FIX)                -0.097426007263     -0.016929189903     -0.114355197166
 DF-MP2-F12/3*C(FIX)                   -0.079845764156     -0.013392342908     -0.093238107064
 DF-MP2-F12/3C(FIX)                    -0.080208433108     -0.013416161064     -0.093624594172

 DF-MP2-F12 correlation energies:
 --------------------------------
 Approx.                                    Singlet             Triplet             Ecorr            Total Energy
 DF-MP2                                -0.537841882175     -0.343202084208     -0.881043966382   -264.666197391297
 DF-MP2-F12/3*C(DX,FIX)                -0.635267889437     -0.360131274111     -0.995399163548   -264.780552588463
 DF-MP2-F12/3*C(FIX)                   -0.617687646330     -0.356594427116     -0.974282073446   -264.759435498361
 DF-MP2-F12/3C(FIX)                    -0.618050315283     -0.356618245271     -0.974668560554   -264.759821985469

 SCS-DF-MP2 energies (F_SING= 1.20000  F_TRIP= 0.62222  F_PARALLEL= 0.33333):
 ----------------------------------------------------------------------------
 SCS-DF-MP2                            -0.858958222116   -264.644111647031
 SCS-DF-MP2-F12/3*C(DX,FIX)            -0.986403148994   -264.771556573909
 SCS-DF-MP2-F12/3*C(FIX)               -0.963106152468   -264.748259577383
 SCS-DF-MP2-F12/3C(FIX)                -0.963556175397   -264.748709600312

 Symmetry restored.
 Symmetry transformation completed.

 Number of N-1 electron functions:              12
 Number of N-2 electron functions:              78
 Number of singly external CSFs:               750
 Number of doubly external CSFs:            844332
 Total number of CSFs:                      845083

 Pair and operator lists are different

 Length of J-op  integral file:             462.28 MB
 Length of K-op  integral file:             502.25 MB
 Length of 3-ext integral record:             0.00 MB

 Memory could be reduced to 38.71 Mwords without degradation in triples

 Integral transformation finished. Total CPU:   1.62 sec, npass=  1  Memory used:   7.09 MW

 Reference energy:                   -263.78515342

 Adding F12 terms to K(Cij), methodcc=6,  factor=1.0

 ITER.      SQ.NORM     CORR.ENERGY   TOTAL ENERGY   ENERGY CHANGE        DEN1      VAR(S)    VAR(P)  DIIS     TIME
   1      1.20226044    -0.86295598  -264.64810941     0.01810415     0.04677452  0.72D-02  0.56D-02  1  1    10.89
   2      1.21659307    -0.85872009  -264.64387351     0.00423589    -0.02017693  0.86D-04  0.59D-03  2  2    11.82
   3      1.22196131    -0.85881611  -264.64396954    -0.00009603    -0.00236574  0.13D-03  0.32D-04  3  3    12.75
   4      1.22476772    -0.85868765  -264.64384108     0.00012846    -0.00141284  0.76D-05  0.41D-05  4  4    13.72
   5      1.22580015    -0.85864981  -264.64380324     0.00003784    -0.00036702  0.56D-06  0.29D-06  5  5    14.72
   6      1.22596300    -0.85862292  -264.64377634     0.00002690    -0.00000809  0.40D-07  0.24D-07  6  6    15.68
   7      1.22599255    -0.85862049  -264.64377391     0.00000243    -0.00000625  0.25D-08  0.40D-08  6  4    16.65
   8      1.22599289    -0.85862000  -264.64377343     0.00000048     0.00000195  0.39D-09  0.27D-09  6  1    17.61
   9      1.22599353    -0.85862007  -264.64377349    -0.00000007     0.00000056  0.26D-10  0.22D-10  6  2    18.58

 Norm of t1 vector:      0.10605073      S-energy:    -0.00000003      T1 diagnostic:  0.01530710
                                                                       D1 diagnostic:  0.04497910

 Adding energy correction from Wij-K(Fij), methodcc=6  factor=1.0
 
  CCSD correlation energy              -0.858620067488
  MP2-F12 correction (uncoupled)       -0.092466336079
  C*T doubles correction               -0.001475279454
  f12b correction                       0.015406566788


 Total CPU time for triples:     36.39 sec


 RESULTS
 =======

  Reference energy                   -263.769225863194
  F12 singles correction               -0.015927561721

 F12 singles corrections added to reference energy

  New reference energy               -263.785153424915

  F12a singlet correction              -0.080407264558
  F12a triplet correction              -0.013534350975
  F12a total correction                -0.093941615533

 F12a corrections for ansatz F12/3C(FIX) added to CCSD energy
 
  CCSD-F12a singlet pair energy        -0.641974281233
  CCSD-F12a triplet pair energy        -0.310587376630
  CCSD-F12a correlation energy         -0.952561683022

  Triples (T) contribution             -0.037679799945
  Total correlation energy             -0.990241482967

  CCSD-F12a total energy             -264.737715107937
  CCSD[T]-F12a energy                -264.777944436638
  CCSD-T-F12a energy                 -264.774455322374
 !CCSD(T)-F12a total energy          -264.775394907882

 F12b corrections for ansatz F12/3C(FIX) added to CCSD(T)-F12a energy

  CCSD-F12b singlet pair energy        -0.627790966355
  CCSD-F12b triplet pair energy        -0.309364124720
  CCSD-F12b correlation energy         -0.937155116234

  Triples (T) contribution             -0.037679799945
  Total correlation energy             -0.974834916179

  CCSD-F12b total energy             -264.722308541149
  CCSD[T]-F12b energy                -264.762537869851
  CCSD-T-F12b energy                 -264.759048755586
 !CCSD(T)-F12b total energy          -264.759988341095

 Timing summary (sec):

 STEP                 CPU(USER)    SYS     CPU(TOT)    WALL
 Transformation          1.63      0.24      1.87      1.87
 CCSD iterations         8.57      0.67      9.24      9.24
 Triples                36.39      1.54     37.93     37.93
 MP2-F12                 8.38      1.10      9.48      9.48
 F12b energy             0.58      0.02      0.60      0.59

 Program statistics:

 Available memory in ccsd:                99998934
 Min. memory needed in ccsd:               2252999
 Max. memory used in ccsd:                 3011949
 Max. memory used in cckext:               2777209 (10 integral passes)



 **********************************************************************************************************************************
 DATASETS  * FILE   NREC   LENGTH (MB)   RECORD NAMES
              1      20      137.17       500      610      700      900      950      970     1000      129      960     1100   
                                          VAR    BASINP    GEOM    SYMINP    ZMAT    AOBASIS   BASIS     P2S    ABASIS      S 
                                         1400     1410     1200     1210     1080     1600     1650     1700      960(1)  1380   
                                           T        V       H0       H01     AOSYM     SMH    MOLCAS    OPER    ABASIS    JKOP   

              2       5        0.98       700     1000     2100     7360     7350   
                                         GEOM     BASIS     RHF    F12ABS    EF12   

 PROGRAMS   *        TOTAL   CCSD(T)        HF       INT
 CPU TIMES  *        62.12     55.81      1.37      4.87
 REAL TIME  *        66.58 SEC
 DISK USED  *         1.19 GB      
 SF USED    *         1.34 GB      
 GA USED    *         2.40 MB       (max)       0.00 MB       (current)
 **********************************************************************************************************************************

     CCSD(T)-F12        HF-SCF  
   -264.75998834   -263.76922586
 **********************************************************************************************************************************
 Variable memory released
