
 Primary working directories    : /scratch/kee
 Secondary working directories  : /scratch/kee
 Wavefunction directory         : /home/kee/wfu/
 Main file repository           : /scratch/kee/

 ARCHNAME  : Linux/x86_64
 FC        : /opt/intel/composer_xe_2015.0.090/bin/intel64/ifort
 FCVERSION : 15.0.0
 BLASLIB   : -L/opt/intel/mkl/lib/intel64 -lmkl_intel_ilp64 -lmkl_sequential -lmkl_core
 id        : emory

 Nodes     nprocs
 node16       3
 Number of processes for MPI-2 version of Molpro:   nprocs(total)=    4   nprocs(compute)=    3   nprocs(helper)=    1
 ga_uses_ma=false, calling ma_init with nominal heap.
 GA-space will be limited to   8.0 MW (determined by -G option)

 Using customized tuning parameters: mindgm=7; mindgv=32; mindgc=1; mindgr=1; noblas=0; mincuda=1000; minvec=7
 default implementation of scratch files=sf  

 ***,co2h2o
 memory,100,m
 basis avtz
 geomtype = xyz
 geometry = {
 6
       0.00000777
 O    10.97257393   -1.10347931    0.00000000
 O    11.76744404    1.08065151   -0.00000000
 O     3.94356282    0.00000000    0.00000000
 H     3.19556774    0.58340495    0.10287003
 H     4.69598802    0.58686026    0.10347930
 C    11.34356282    0.00000000    0.00000000
 }
 hf
 ccsd(t)-f12
 ---

 Variables initialized (665), CPU time= 0.00 sec
 Commands  initialized (462), CPU time= 0.01 sec, 486 directives.
 Default parameters read. Elapsed time= 0.03 sec

 Checking input...
 Passed
1


                                         ***  PROGRAM SYSTEM MOLPRO  ***
                         Copyright, University College Cardiff Consultants Limited, 2008

                                    Version 2010.1 linked 9 Dec 2014 15:06:28 


 **********************************************************************************************************************************
 LABEL *   co2h2o                                                                        
 Linux-2.6.32-504.el6.x86_64/node16(x86_64) 64 bit mpp version                           DATE: 18-Jan-17          TIME: 22:24:41  
 **********************************************************************************************************************************

 Patch level:      19
 **********************************************************************************************************************************

 Variable memory set to  100000000 words,  buffer space   230000 words

 SETTING BASIS          =    AVTZ
 SETTING GEOMTYPE       =    XYZ

Geometry recognized as XYZ



 Recomputing integrals since basis changed


 Using spherical harmonics

 Library entry O      S aug-cc-pVTZ          selected for orbital group  1
 Library entry O      P aug-cc-pVTZ          selected for orbital group  1
 Library entry O      D aug-cc-pVTZ          selected for orbital group  1
 Library entry O      F aug-cc-pVTZ          selected for orbital group  1
 Library entry H      S aug-cc-pVTZ          selected for orbital group  2
 Library entry H      P aug-cc-pVTZ          selected for orbital group  2
 Library entry H      D aug-cc-pVTZ          selected for orbital group  2
 Library entry C      S aug-cc-pVTZ          selected for orbital group  3
 Library entry C      P aug-cc-pVTZ          selected for orbital group  3
 Library entry C      D aug-cc-pVTZ          selected for orbital group  3
 Library entry C      F aug-cc-pVTZ          selected for orbital group  3

1PROGRAM * SEWARD (Integral evaluation for generally contracted gaussian basis sets)     Author: Roland Lindh, 1990

 Geometry written to block  1 of record 700


 Point group  C1  



 ATOMIC COORDINATES

 NR  ATOM    CHARGE       X              Y              Z

   1  O       8.00   20.735159684   -2.085273688    0.000000000
   2  O       8.00   22.237246502    2.042135397    0.000000000
   3  O       8.00    7.452253712    0.000000000    0.000000000
   4  H       1.00    6.038747863    1.102475579    0.194396184
   5  H       1.00    8.874131274    1.109005169    0.195547537
   6  C       6.00   21.436227084    0.000000000    0.000000000

 Bond lengths in Bohr (Angstrom)

 1-6  2.199968602  2-6  2.193615529  3-4  1.803119814  3-5  1.813799081
     (1.164173245)     (1.160811343)     (0.954169911)     (0.959821135)

 Bond angles

  1-6-2  177.16520951   4-3-5  103.24222917

 NUCLEAR CHARGE:                   32
 NUMBER OF PRIMITIVE AOS:         322
 NUMBER OF SYMMETRY AOS:          282
 NUMBER OF CONTRACTIONS:          230   ( 230A   )
 NUMBER OF CORE ORBITALS:           4   (   4A   )
 NUMBER OF VALENCE ORBITALS:       18   (  18A   )


 NUCLEAR REPULSION ENERGY   83.08947853


 Eigenvalues of metric

         1 0.349E-03 0.367E-03 0.386E-03 0.401E-03 0.901E-03 0.923E-03 0.162E-02 0.175E-02


 Contracted 2-electron integrals neglected if value below      1.0D-11
 AO integral compression algorithm  1   Integral accuracy      1.0D-11

     492.569 MB (compressed) written to integral file ( 17.6%)

     Node minimum: 149.684 MB, node maximum: 173.277 MB


 NUMBER OF SORTED TWO-ELECTRON INTEGRALS:  117629820.     BUFFER LENGTH:  32768
 NUMBER OF SEGMENTS:   8  SEGMENT LENGTH:   15997437      RECORD LENGTH: 524288

 Memory used in sort:      16.55 MW

 SORT1 READ   349779821. AND WROTE    35023256. INTEGRALS IN    105 RECORDS. CPU TIME:     2.81 SEC, REAL TIME:     3.22 SEC
 SORT2 READ   104679818. AND WROTE   352862895. INTEGRALS IN   1941 RECORDS. CPU TIME:     1.43 SEC, REAL TIME:     9.68 SEC

 Node minimum:   117612110.  Node maximum:   117629820. integrals

 OPERATOR DM      FOR CENTER  0  COORDINATES:    0.000000    0.000000    0.000000


 **********************************************************************************************************************************
 DATASETS  * FILE   NREC   LENGTH (MB)   RECORD NAMES
              1      18        4.62       500      610      700      900      950      970     1000      129      960     1100   
                                          VAR    BASINP    GEOM    SYMINP    ZMAT    AOBASIS   BASIS     P2S    ABASIS      S 
                                         1400     1410     1200     1210     1080     1600     1650     1700   
                                           T        V       H0       H01     AOSYM     SMH    MOLCAS    OPER   

 PROGRAMS   *        TOTAL       INT
 CPU TIMES  *        13.78     13.71
 REAL TIME  *        22.79 SEC
 DISK USED  *         1.72 GB      
 GA USED    *         0.00 MB       (max)       0.00 MB       (current)
 **********************************************************************************************************************************

1PROGRAM * RHF-SCF (CLOSED SHELL)       Authors: W. Meyer, H.-J. Werner


 NUMBER OF ELECTRONS:      16+   16-    SPACE SYMMETRY=1    SPIN SYMMETRY=Singlet 
 CONVERGENCE THRESHOLDS:    1.00E-05 (Density)    1.00E-07 (Energy)
 MAX. NUMBER OF ITERATIONS:       60
 INTERPOLATION TYPE:            DIIS
 INTERPOLATION STEPS:              2 (START)      1 (STEP)
 LEVEL SHIFTS:                  0.00 (CLOSED)  0.00 (OPEN) 



 Orbital guess generated from atomic densities. Full valence occupancy:   22

 Molecular orbital dump at record        2100.2

 ITERATION    DDIFF          GRAD             ENERGY        2-EL.EN.            DIPOLE MOMENTS         DIIS
    1      0.000D+00      0.000D+00      -263.65928390    361.523498   -0.06884    1.17031    0.19888    0
    2      0.000D+00      0.469D-02      -263.72483674    357.020346   -0.01310    0.66450    0.11655    1
    3      0.752D-02      0.319D-02      -263.76848387    359.568635   -0.03358    0.79429    0.13625    2
    4      0.310D-02      0.300D-03      -263.76898076    359.355425   -0.03315    0.79572    0.13714    3
    5      0.356D-03      0.876D-04      -263.76903941    359.358842   -0.03261    0.79228    0.13615    4
    6      0.133D-03      0.355D-04      -263.76904672    359.373165   -0.03288    0.79181    0.13630    5
    7      0.444D-04      0.883D-05      -263.76904747    359.365116   -0.03269    0.79201    0.13622    6
    8      0.146D-04      0.227D-05      -263.76904752    359.366057   -0.03284    0.79161    0.13623    7
    9      0.405D-05      0.151D-05      -263.76904752    359.366208   -0.03272    0.79193    0.13622    0

 Final occupancy:  16

 !RHF STATE 1.1 Energy               -263.769047521113
 Nuclear energy                        83.08947853
 One-electron energy                 -526.54162981
 Two-electron energy                  179.68310376
 Virial quotient                       -1.00179819
 !RHF STATE 1.1 Dipole moment          -0.03272237     0.79193449     0.13622327
 Dipole moment /Debye                  -0.08316652     2.01276486     0.34622234

 Orbital energies:

         1.1          2.1          3.1          4.1          5.1          6.1          7.1          8.1          9.1         10.1
    -20.654705   -20.653393   -20.568371   -11.462885    -1.531577    -1.478249    -1.355336    -0.801878    -0.743951    -0.716169

        11.1         12.1         13.1         14.1         15.1         16.1         17.1         18.1
     -0.715597    -0.715582    -0.588129    -0.545259    -0.545216    -0.511412     0.026616     0.040693


 **********************************************************************************************************************************
 DATASETS  * FILE   NREC   LENGTH (MB)   RECORD NAMES
              1      18        4.62       500      610      700      900      950      970     1000      129      960     1100   
                                          VAR    BASINP    GEOM    SYMINP    ZMAT    AOBASIS   BASIS     P2S    ABASIS      S 
                                         1400     1410     1200     1210     1080     1600     1650     1700   
                                           T        V       H0       H01     AOSYM     SMH    MOLCAS    OPER   

              2       3        1.44       700     1000     2100   
                                         GEOM     BASIS     RHF  

 PROGRAMS   *        TOTAL        HF       INT
 CPU TIMES  *        22.35      8.57     13.71
 REAL TIME  *        31.62 SEC
 DISK USED  *         1.75 GB      
 SF USED    *         0.21 MB      
 GA USED    *         0.00 MB       (max)       0.00 MB       (current)
 **********************************************************************************************************************************


1PROGRAM * CCSD (Closed-shell coupled cluster)     Authors: C. Hampel, H.-J. Werner, 1991, M. Deegan, P.J. Knowles, 1992

                                  CCSD-F12 implementation by  H.-J. Werner, 2007

                   Density fitting integral evaluation by F.R. Manby, 2003,2007, G. Knizia, 2010

 Basis set CC-PVTZ/JKFIT generated.      Number of basis functions:   376 
 Basis set AUG-CC-PVTZ/MP2FIT generated. Number of basis functions:   516 

 Convergence thresholds:  THRVAR = 1.00D-08  THRDEN = 1.00D-06

 CCSD(T)     terms to be evaluated (factor= 1.000)


 Number of core orbitals:           4 (   4 )
 Number of closed-shell orbitals:  12 (  12 )
 Number of external orbitals:     214 ( 214 )

 Molecular orbitals read from record     2100.2  Type=RHF/CANONICAL (state 1.1)

 MP2-F12 correlation treatment (H.-J. Werner, 2006)
 --------------------------------------------------

 Using MP2-F12 with ansatz 3C(FIX)

 Using projected zeroth-order Hamiltonian (+Z)

 FOCKRIB=T FOCKRIC=T FOCKRIP=T CABSP=T CABSA=T CABSK=T CABSF=T GBC=F EBC=F DMAT=T NOFIK=T NOPAO=1 SOLVE=-1  USEPAO=0
 EXCH_A= T EXCH_B= F EXCH_C= F EXCH_P= F
 
 Geminal basis:    OPTFULL  GEM_TYPE=SLATER  BETA=1.0  NGEM=6

 Optimizing Gaussian exponents for each gem_beta

 Geminal optimization for beta= 1.0000
 Weight function:   m=0, omega= 1.4646

 Augmented Hessian optimization of geminal fit. Trust ratio= 0.40000
 Convergence reached after   2 iterations. Final gradient= 8.24D-16, Step= 4.32D-06, Delta= 1.28D-09
 
 Alpha:                 0.19532     0.81920     2.85917     9.50073    35.69989   197.79328
 Coeff:                 0.27070     0.30552     0.18297     0.10986     0.06810     0.04224
 

 All pairs explicitly correlated. Number of r12-pairs:           78
 
 AO(A)-basis ORBITAL           loaded. Number of functions:     230
 RI(R)-basis CC-PVTZ/JKFIT     loaded. Number of functions:     376
 DF-basis CC-PVTZ/JKFIT        loaded. Number of functions:     376

 Screening thresholds:   THRAO=  1.00D-10  THRMO=  1.00D-09  THRPROD=  1.00D-09
                         THRSW=  1.00D-05  THROV=  1.00D-12  THRF12=   1.00D-08

 CPU time for Fock operators                      0.85 sec
 
 Construction of ABS:
 Smallest eigenvalue of S          2.58E-04  (threshold= 1.00E-08)
 Ratio eigmin/eigmax               1.84E-06  (threshold= 1.00E-09)
 Smallest eigenvalue of S kept     2.58E-04  (threshold= 2.58E-04, 0 functions deleted, 376 kept)
 
 Construction of CABS:
 Smallest eigenvalue of S          2.30E-08  (threshold= 1.00E-08)
 Ratio eigmin/eigmax               2.30E-08  (threshold= 1.00E-09)
 Smallest eigenvalue of S kept     2.30E-08  (threshold= 2.30E-08, 0 functions deleted, 376 kept)
 
 CPU time for CABS singles                        0.17 sec

 CABS-singles contribution of  -0.01593210 patched into reference energy.
 New reference energy        -263.78497962
 
 AO(A)-basis ORBITAL           loaded. Number of functions:     230
 RI(R)-basis CC-PVTZ/JKFIT     loaded. Number of functions:     376
 DF-basis AUG-CC-PVTZ/MP2FIT   loaded. Number of functions:     516

 Screening thresholds:   THRAO=  1.00D-10  THRMO=  1.00D-09  THRPROD=  1.00D-09
                         THRSW=  1.00D-05  THROV=  1.00D-12  THRF12=   1.00D-08

 CPU time for 3-index integral evaluation         1.90 sec
 CPU time for first  half transformation          0.20 sec (11441.0 MFLOP/sec)
 CPU time for second half transformation          0.03 sec ( 3161.3 MFLOP/sec)
 CPU time for sorting                             0.20 sec
 CPU time for fitting                             0.05 sec (27690.6 MFLOP/sec)
 CPU time for tilde quantities                    0.08 sec (23111.0 MFLOP/sec)
 CPU time for assembly                            0.77 sec (30663.4 MFLOP/sec)
 CPU time for tranop_f12                          0.87 sec (35146.1 MFLOP/sec)
 CPU time for f12 integrals (total)               6.10 sec
 F12-matrices built in  3 passes.
 F12-matrices built in  3 passes.
 F12-matrices built in  3 passes.
 F12-matrices built in  3 passes.
 FC-matrix built in  3 passes.
 CPU time for f12 matrices (total)                0.77 sec

 Diagonal F12 approximation with fixed coefficients:  TSING= 0.500,  TTRIP= 0.250 (scaled by -1/beta)

 DF-MP2-F12 energy corrections:
 ------------------------------
 Approx.                                    Singlet             Triplet             Total
 DF-MP2-F12/3*C(DX,FIX)                -0.097439853339     -0.016932938096     -0.114372791436
 DF-MP2-F12/3*C(FIX)                   -0.079849498479     -0.013394208120     -0.093243706599
 DF-MP2-F12/3C(FIX)                    -0.080210915562     -0.013418094485     -0.093629010047

 DF-MP2-F12 correlation energies:
 --------------------------------
 Approx.                                    Singlet             Triplet             Ecorr            Total Energy
 DF-MP2                                -0.537811828183     -0.343153716536     -0.880965544719   -264.665945166751
 DF-MP2-F12/3*C(DX,FIX)                -0.635251681522     -0.360086654632     -0.995338336154   -264.780317958186
 DF-MP2-F12/3*C(FIX)                   -0.617661326662     -0.356547924656     -0.974209251318   -264.759188873350
 DF-MP2-F12/3C(FIX)                    -0.618022743745     -0.356571811021     -0.974594554766   -264.759574176798

 SCS-DF-MP2 energies (F_SING= 1.20000  F_TRIP= 0.62222  F_PARALLEL= 0.33333):
 ----------------------------------------------------------------------------
 SCS-DF-MP2                            -0.858892061886   -264.643871683918
 SCS-DF-MP2-F12/3*C(DX,FIX)            -0.986355936264   -264.771335558296
 SCS-DF-MP2-F12/3*C(FIX)               -0.963045634002   -264.748025256034
 SCS-DF-MP2-F12/3C(FIX)                -0.963494197129   -264.748473819161
 Symmetry transformation completed.

 Number of N-1 electron functions:              12
 Number of N-2 electron functions:              78
 Number of singly external CSFs:              2568
 Number of doubly external CSFs:           3298596
 Total number of CSFs:                     3301165

 Pair and operator lists are different

 Length of J-op  integral file:             474.22 MB
 Length of K-op  integral file:             572.29 MB
 Length of 3-ext integral record:             0.00 MB

 For full I/O caching in triples, increase memory by 50.81 Mwords to 151.09 Mwords.

 Integral transformation finished. Total CPU:  15.12 sec, npass=  1  Memory used:  87.46 MW

 Reference energy:                   -263.78497962

 Adding F12 terms to K(Cij), methodcc=6,  factor=1.0

 ITER.      SQ.NORM     CORR.ENERGY   TOTAL ENERGY   ENERGY CHANGE        DEN1      VAR(S)    VAR(P)  DIIS     TIME
   1      1.20218440    -0.86288988  -264.64786950     0.01809199     0.04676239  0.72D-02  0.56D-02  1  1    33.90
   2      1.21651143    -0.85864896  -264.64362858     0.00424092    -0.02017419  0.86D-04  0.59D-03  2  2    50.90
   3      1.22187573    -0.85874408  -264.64372370    -0.00009512    -0.00236176  0.13D-03  0.32D-04  3  3    59.99
   4      1.22468282    -0.85861540  -264.64359502     0.00012868    -0.00141281  0.76D-05  0.41D-05  4  4    68.83
   5      1.22571638    -0.85857742  -264.64355704     0.00003798    -0.00036748  0.56D-06  0.29D-06  5  5    78.04
   6      1.22587915    -0.85855048  -264.64353010     0.00002694    -0.00000807  0.40D-07  0.24D-07  6  6   101.72
   7      1.22590867    -0.85854803  -264.64352765     0.00000245    -0.00000622  0.27D-08  0.41D-08  6  4   112.09
   8      1.22590903    -0.85854753  -264.64352715     0.00000050     0.00000193  0.40D-09  0.28D-09  6  1   122.75
   9      1.22590962    -0.85854760  -264.64352722    -0.00000007     0.00000058  0.28D-10  0.22D-10  6  2   132.69

 Norm of t1 vector:      0.10607337      S-energy:     0.00000051      T1 diagnostic:  0.01531037
                                                                       D1 diagnostic:  0.04500539

 Adding energy correction from Wij-K(Fij), methodcc=6  factor=1.0
 
  CCSD correlation energy              -0.858547599174
  MP2-F12 correction (uncoupled)       -0.092470296531
  C*T doubles correction               -0.001477655778
  f12b correction                       0.015404917907


 Total CPU time for triples:    220.18 sec


 RESULTS
 =======

  Reference energy                   -263.769047521113
  F12 singles correction               -0.015932100919

 F12 singles corrections added to reference energy

  New reference energy               -263.784979622032

  F12a singlet correction              -0.080411715885
  F12a triplet correction              -0.013536236424
  F12a total correction                -0.093947952309

 F12a corrections for ansatz F12/3C(FIX) added to CCSD energy
 
  CCSD-F12a singlet pair energy        -0.641944886633
  CCSD-F12a triplet pair energy        -0.310551172413
  CCSD-F12a correlation energy         -0.952495551483

  Triples (T) contribution             -0.037664351946
  Total correlation energy             -0.990159903429

  CCSD-F12a total energy             -264.737475173515
  CCSD[T]-F12a energy                -264.777688848847
  CCSD-T-F12a energy                 -264.774200071161
 !CCSD(T)-F12a total energy          -264.775139525461

 F12b corrections for ansatz F12/3C(FIX) added to CCSD(T)-F12a energy

  CCSD-F12b singlet pair energy        -0.627763089413
  CCSD-F12b triplet pair energy        -0.309328051726
  CCSD-F12b correlation energy         -0.937090633576

  Triples (T) contribution             -0.037664351946
  Total correlation energy             -0.974754985522

  CCSD-F12b total energy             -264.722070255608
  CCSD[T]-F12b energy                -264.762283930940
  CCSD-T-F12b energy                 -264.758795153254
 !CCSD(T)-F12b total energy          -264.759734607554

 Timing summary (sec):

 STEP                 CPU(USER)    SYS     CPU(TOT)    WALL
 Transformation         15.23     10.11     25.34     31.66
 CCSD iterations       109.06      8.66    117.72    137.06
 Triples               220.18      3.19    223.37    234.44
 MP2-F12                 8.43      1.21      9.64     10.21
 F12b energy             5.61      0.06      5.67      5.67

 Program statistics:

 Available memory in ccsd:                99998934
 Min. memory needed in ccsd:               8644845
 Max. memory used in ccsd:                11598633
 Max. memory used in cckext:               8768967 (10 integral passes)



 **********************************************************************************************************************************
 DATASETS  * FILE   NREC   LENGTH (MB)   RECORD NAMES
              1      20      527.84       500      610      700      900      950      970     1000      129      960     1100   
                                          VAR    BASINP    GEOM    SYMINP    ZMAT    AOBASIS   BASIS     P2S    ABASIS      S 
                                         1400     1410     1200     1210     1080     1600     1650     1700      960(1)  1380   
                                           T        V       H0       H01     AOSYM     SMH    MOLCAS    OPER    ABASIS    JKOP   

              2       5        2.50       700     1000     2100     7360     7350   
                                         GEOM     BASIS     RHF    F12ABS    EF12   

 PROGRAMS   *        TOTAL   CCSD(T)        HF       INT
 CPU TIMES  *       381.23    358.87      8.57     13.71
 REAL TIME  *       451.09 SEC
 DISK USED  *         2.62 GB      
 SF USED    *         1.91 GB      
 GA USED    *         2.40 MB       (max)       0.00 MB       (current)
 **********************************************************************************************************************************

     CCSD(T)-F12        HF-SCF  
   -264.75973461   -263.76904752
 **********************************************************************************************************************************
 Variable memory released
