
 Primary working directories    : /scratch/kee
 Secondary working directories  : /scratch/kee
 Wavefunction directory         : /home/kee/wfu/
 Main file repository           : /scratch/kee/

 ARCHNAME  : Linux/x86_64
 FC        : /opt/intel/composer_xe_2015.0.090/bin/intel64/ifort
 FCVERSION : 15.0.0
 BLASLIB   : -L/opt/intel/mkl/lib/intel64 -lmkl_intel_ilp64 -lmkl_sequential -lmkl_core
 id        : emory

 Nodes     nprocs
 node16       3
 Number of processes for MPI-2 version of Molpro:   nprocs(total)=    4   nprocs(compute)=    3   nprocs(helper)=    1
 ga_uses_ma=false, calling ma_init with nominal heap.
 GA-space will be limited to   8.0 MW (determined by -G option)

 Using customized tuning parameters: mindgm=7; mindgv=32; mindgc=1; mindgr=1; noblas=0; mincuda=1000; minvec=7
 default implementation of scratch files=sf  

 ***,co2h2o
 memory,100,m
 basis avtz
 geomtype = xyz
 geometry = {
 6
       0.00000777
 O    10.97257393   -1.10347931    0.00000000
 O    11.76744404    1.08065151   -0.00000000
 O     4.09356282    0.00000000    0.00000000
 H     3.34556774    0.58340495    0.10287003
 H     4.84598802    0.58686026    0.10347930
 C    11.34356282    0.00000000    0.00000000
 }
 hf
 ccsd(t)-f12
 ---

 Variables initialized (665), CPU time= 0.01 sec
 Commands  initialized (462), CPU time= 0.01 sec, 486 directives.
 Default parameters read. Elapsed time= 0.03 sec

 Checking input...
 Passed
1


                                         ***  PROGRAM SYSTEM MOLPRO  ***
                         Copyright, University College Cardiff Consultants Limited, 2008

                                    Version 2010.1 linked 9 Dec 2014 15:06:28 


 **********************************************************************************************************************************
 LABEL *   co2h2o                                                                        
 Linux-2.6.32-504.el6.x86_64/node16(x86_64) 64 bit mpp version                           DATE: 18-Jan-17          TIME: 22:00:14  
 **********************************************************************************************************************************

 Patch level:      19
 **********************************************************************************************************************************

 Variable memory set to  100000000 words,  buffer space   230000 words

 SETTING BASIS          =    AVTZ
 SETTING GEOMTYPE       =    XYZ

Geometry recognized as XYZ



 Recomputing integrals since basis changed


 Using spherical harmonics

 Library entry O      S aug-cc-pVTZ          selected for orbital group  1
 Library entry O      P aug-cc-pVTZ          selected for orbital group  1
 Library entry O      D aug-cc-pVTZ          selected for orbital group  1
 Library entry O      F aug-cc-pVTZ          selected for orbital group  1
 Library entry H      S aug-cc-pVTZ          selected for orbital group  2
 Library entry H      P aug-cc-pVTZ          selected for orbital group  2
 Library entry H      D aug-cc-pVTZ          selected for orbital group  2
 Library entry C      S aug-cc-pVTZ          selected for orbital group  3
 Library entry C      P aug-cc-pVTZ          selected for orbital group  3
 Library entry C      D aug-cc-pVTZ          selected for orbital group  3
 Library entry C      F aug-cc-pVTZ          selected for orbital group  3

1PROGRAM * SEWARD (Integral evaluation for generally contracted gaussian basis sets)     Author: Roland Lindh, 1990

 Geometry written to block  1 of record 700


 Point group  C1  



 ATOMIC COORDINATES

 NR  ATOM    CHARGE       X              Y              Z

   1  O       8.00   20.735159684   -2.085273688    0.000000000
   2  O       8.00   22.237246502    2.042135397    0.000000000
   3  O       8.00    7.735712632    0.000000000    0.000000000
   4  H       1.00    6.322206783    1.102475579    0.194396184
   5  H       1.00    9.157590194    1.109005169    0.195547537
   6  C       6.00   21.436227084    0.000000000    0.000000000

 Bond lengths in Bohr (Angstrom)

 1-6  2.199968602  2-6  2.193615529  3-4  1.803119814  3-5  1.813799081
     (1.164173245)     (1.160811343)     (0.954169911)     (0.959821135)

 Bond angles

  1-6-2  177.16520951   4-3-5  103.24222917

 NUCLEAR CHARGE:                   32
 NUMBER OF PRIMITIVE AOS:         322
 NUMBER OF SYMMETRY AOS:          282
 NUMBER OF CONTRACTIONS:          230   ( 230A   )
 NUMBER OF CORE ORBITALS:           4   (   4A   )
 NUMBER OF VALENCE ORBITALS:       18   (  18A   )


 NUCLEAR REPULSION ENERGY   83.40847855


 Eigenvalues of metric

         1 0.349E-03 0.366E-03 0.386E-03 0.399E-03 0.901E-03 0.923E-03 0.162E-02 0.175E-02


 Contracted 2-electron integrals neglected if value below      1.0D-11
 AO integral compression algorithm  1   Integral accuracy      1.0D-11

     502.268 MB (compressed) written to integral file ( 17.7%)

     Node minimum: 149.684 MB, node maximum: 181.142 MB


 NUMBER OF SORTED TWO-ELECTRON INTEGRALS:  117629820.     BUFFER LENGTH:  32768
 NUMBER OF SEGMENTS:   8  SEGMENT LENGTH:   15997437      RECORD LENGTH: 524288

 Memory used in sort:      16.55 MW

 SORT1 READ   355512925. AND WROTE    35874644. INTEGRALS IN    106 RECORDS. CPU TIME:     3.07 SEC, REAL TIME:     3.74 SEC
 SORT2 READ   107268970. AND WROTE   352862895. INTEGRALS IN   1713 RECORDS. CPU TIME:     0.75 SEC, REAL TIME:     3.30 SEC

 Node minimum:   117612110.  Node maximum:   117629820. integrals

 OPERATOR DM      FOR CENTER  0  COORDINATES:    0.000000    0.000000    0.000000


 **********************************************************************************************************************************
 DATASETS  * FILE   NREC   LENGTH (MB)   RECORD NAMES
              1      18        4.62       500      610      700      900      950      970     1000      129      960     1100   
                                          VAR    BASINP    GEOM    SYMINP    ZMAT    AOBASIS   BASIS     P2S    ABASIS      S 
                                         1400     1410     1200     1210     1080     1600     1650     1700   
                                           T        V       H0       H01     AOSYM     SMH    MOLCAS    OPER   

 PROGRAMS   *        TOTAL       INT
 CPU TIMES  *         6.29      6.24
 REAL TIME  *        19.49 SEC
 DISK USED  *         1.75 GB      
 GA USED    *         0.00 MB       (max)       0.00 MB       (current)
 **********************************************************************************************************************************

1PROGRAM * RHF-SCF (CLOSED SHELL)       Authors: W. Meyer, H.-J. Werner


 NUMBER OF ELECTRONS:      16+   16-    SPACE SYMMETRY=1    SPIN SYMMETRY=Singlet 
 CONVERGENCE THRESHOLDS:    1.00E-05 (Density)    1.00E-07 (Energy)
 MAX. NUMBER OF ITERATIONS:       60
 INTERPOLATION TYPE:            DIIS
 INTERPOLATION STEPS:              2 (START)      1 (STEP)
 LEVEL SHIFTS:                  0.00 (CLOSED)  0.00 (OPEN) 



 Orbital guess generated from atomic densities. Full valence occupancy:   22

 Molecular orbital dump at record        2100.2

 ITERATION    DDIFF          GRAD             ENERGY        2-EL.EN.            DIPOLE MOMENTS         DIIS
    1      0.000D+00      0.000D+00      -263.65926159    362.158751   -0.06885    1.17031    0.19888    0
    2      0.000D+00      0.469D-02      -263.72481846    357.656506   -0.01331    0.66374    0.11649    1
    3      0.752D-02      0.319D-02      -263.76847411    360.204552   -0.03364    0.79390    0.13621    2
    4      0.310D-02      0.300D-03      -263.76897102    359.991344   -0.03323    0.79524    0.13710    3
    5      0.356D-03      0.876D-04      -263.76902968    359.994777   -0.03267    0.79185    0.13611    4
    6      0.133D-03      0.355D-04      -263.76903699    360.009098   -0.03295    0.79135    0.13626    5
    7      0.444D-04      0.884D-05      -263.76903774    360.001061   -0.03276    0.79157    0.13618    6
    8      0.146D-04      0.229D-05      -263.76903779    360.001984   -0.03291    0.79116    0.13618    7
    9      0.406D-05      0.153D-05      -263.76903780    360.002150   -0.03279    0.79149    0.13618    0

 Final occupancy:  16

 !RHF STATE 1.1 Energy               -263.769037795441
 Nuclear energy                        83.40847855
 One-electron energy                 -527.17859110
 Two-electron energy                  180.00107475
 Virial quotient                       -1.00179808
 !RHF STATE 1.1 Dipole moment          -0.03279330     0.79148523     0.13618232
 Dipole moment /Debye                  -0.08334680     2.01162302     0.34611825

 Orbital energies:

         1.1          2.1          3.1          4.1          5.1          6.1          7.1          8.1          9.1         10.1
    -20.654742   -20.653416   -20.568412   -11.462912    -1.531607    -1.478277    -1.355376    -0.801905    -0.743976    -0.716210

        11.1         12.1         13.1         14.1         15.1         16.1         17.1         18.1
     -0.715629    -0.715611    -0.588166    -0.545287    -0.545244    -0.511451     0.026603     0.040830


 **********************************************************************************************************************************
 DATASETS  * FILE   NREC   LENGTH (MB)   RECORD NAMES
              1      18        4.62       500      610      700      900      950      970     1000      129      960     1100   
                                          VAR    BASINP    GEOM    SYMINP    ZMAT    AOBASIS   BASIS     P2S    ABASIS      S 
                                         1400     1410     1200     1210     1080     1600     1650     1700   
                                           T        V       H0       H01     AOSYM     SMH    MOLCAS    OPER   

              2       3        1.44       700     1000     2100   
                                         GEOM     BASIS     RHF  

 PROGRAMS   *        TOTAL        HF       INT
 CPU TIMES  *        14.67      8.38      6.24
 REAL TIME  *        28.44 SEC
 DISK USED  *         1.79 GB      
 SF USED    *         0.21 MB      
 GA USED    *         0.00 MB       (max)       0.00 MB       (current)
 **********************************************************************************************************************************


1PROGRAM * CCSD (Closed-shell coupled cluster)     Authors: C. Hampel, H.-J. Werner, 1991, M. Deegan, P.J. Knowles, 1992

                                  CCSD-F12 implementation by  H.-J. Werner, 2007

                   Density fitting integral evaluation by F.R. Manby, 2003,2007, G. Knizia, 2010

 Basis set CC-PVTZ/JKFIT generated.      Number of basis functions:   376 
 Basis set AUG-CC-PVTZ/MP2FIT generated. Number of basis functions:   516 

 Convergence thresholds:  THRVAR = 1.00D-08  THRDEN = 1.00D-06

 CCSD(T)     terms to be evaluated (factor= 1.000)


 Number of core orbitals:           4 (   4 )
 Number of closed-shell orbitals:  12 (  12 )
 Number of external orbitals:     214 ( 214 )

 Molecular orbitals read from record     2100.2  Type=RHF/CANONICAL (state 1.1)

 MP2-F12 correlation treatment (H.-J. Werner, 2006)
 --------------------------------------------------

 Using MP2-F12 with ansatz 3C(FIX)

 Using projected zeroth-order Hamiltonian (+Z)

 FOCKRIB=T FOCKRIC=T FOCKRIP=T CABSP=T CABSA=T CABSK=T CABSF=T GBC=F EBC=F DMAT=T NOFIK=T NOPAO=1 SOLVE=-1  USEPAO=0
 EXCH_A= T EXCH_B= F EXCH_C= F EXCH_P= F
 
 Geminal basis:    OPTFULL  GEM_TYPE=SLATER  BETA=1.0  NGEM=6

 Optimizing Gaussian exponents for each gem_beta

 Geminal optimization for beta= 1.0000
 Weight function:   m=0, omega= 1.4646

 Augmented Hessian optimization of geminal fit. Trust ratio= 0.40000
 Convergence reached after   2 iterations. Final gradient= 8.24D-16, Step= 4.32D-06, Delta= 1.28D-09
 
 Alpha:                 0.19532     0.81920     2.85917     9.50073    35.69989   197.79328
 Coeff:                 0.27070     0.30552     0.18297     0.10986     0.06810     0.04224
 

 All pairs explicitly correlated. Number of r12-pairs:           78
 
 AO(A)-basis ORBITAL           loaded. Number of functions:     230
 RI(R)-basis CC-PVTZ/JKFIT     loaded. Number of functions:     376
 DF-basis CC-PVTZ/JKFIT        loaded. Number of functions:     376

 Screening thresholds:   THRAO=  1.00D-10  THRMO=  1.00D-09  THRPROD=  1.00D-09
                         THRSW=  1.00D-05  THROV=  1.00D-12  THRF12=   1.00D-08

 CPU time for Fock operators                      0.86 sec
 
 Construction of ABS:
 Smallest eigenvalue of S          2.58E-04  (threshold= 1.00E-08)
 Ratio eigmin/eigmax               1.84E-06  (threshold= 1.00E-09)
 Smallest eigenvalue of S kept     2.58E-04  (threshold= 2.58E-04, 0 functions deleted, 376 kept)
 
 Construction of CABS:
 Smallest eigenvalue of S          2.30E-08  (threshold= 1.00E-08)
 Ratio eigmin/eigmax               2.30E-08  (threshold= 1.00E-09)
 Smallest eigenvalue of S kept     2.30E-08  (threshold= 2.30E-08, 0 functions deleted, 376 kept)
 
 CPU time for CABS singles                        0.15 sec

 CABS-singles contribution of  -0.01593218 patched into reference energy.
 New reference energy        -263.78496997
 
 AO(A)-basis ORBITAL           loaded. Number of functions:     230
 RI(R)-basis CC-PVTZ/JKFIT     loaded. Number of functions:     376
 DF-basis AUG-CC-PVTZ/MP2FIT   loaded. Number of functions:     516

 Screening thresholds:   THRAO=  1.00D-10  THRMO=  1.00D-09  THRPROD=  1.00D-09
                         THRSW=  1.00D-05  THROV=  1.00D-12  THRF12=   1.00D-08

 CPU time for 3-index integral evaluation         1.89 sec
 CPU time for first  half transformation          0.18 sec (14270.0 MFLOP/sec)
 CPU time for second half transformation          0.01 sec (11053.2 MFLOP/sec)
 CPU time for sorting                             0.14 sec
 CPU time for fitting                             0.05 sec (27861.0 MFLOP/sec)
 CPU time for tilde quantities                    0.08 sec (23111.0 MFLOP/sec)
 CPU time for assembly                            0.79 sec (30353.8 MFLOP/sec)
 CPU time for tranop_f12                          0.89 sec (33877.9 MFLOP/sec)
 CPU time for f12 integrals (total)               6.02 sec
 F12-matrices built in  3 passes.
 F12-matrices built in  3 passes.
 F12-matrices built in  3 passes.
 F12-matrices built in  3 passes.
 FC-matrix built in  3 passes.
 CPU time for f12 matrices (total)                0.49 sec

 Diagonal F12 approximation with fixed coefficients:  TSING= 0.500,  TTRIP= 0.250 (scaled by -1/beta)

 DF-MP2-F12 energy corrections:
 ------------------------------
 Approx.                                    Singlet             Triplet             Total
 DF-MP2-F12/3*C(DX,FIX)                -0.097439402437     -0.016932866071     -0.114372268508
 DF-MP2-F12/3*C(FIX)                   -0.079849058482     -0.013394138431     -0.093243196913
 DF-MP2-F12/3C(FIX)                    -0.080210481980     -0.013418033812     -0.093628515792

 DF-MP2-F12 correlation energies:
 --------------------------------
 Approx.                                    Singlet             Triplet             Ecorr            Total Energy
 DF-MP2                                -0.537813995224     -0.343156083465     -0.880970078690   -264.665940051181
 DF-MP2-F12/3*C(DX,FIX)                -0.635253397661     -0.360088949537     -0.995342347198   -264.780312319689
 DF-MP2-F12/3*C(FIX)                   -0.617663053706     -0.356550221896     -0.974213275603   -264.759183248094
 DF-MP2-F12/3C(FIX)                    -0.618024477204     -0.356574117278     -0.974598594482   -264.759568566973

 SCS-DF-MP2 energies (F_SING= 1.20000  F_TRIP= 0.62222  F_PARALLEL= 0.33333):
 ----------------------------------------------------------------------------
 SCS-DF-MP2                            -0.858896135092   -264.643866107583
 SCS-DF-MP2-F12/3*C(DX,FIX)            -0.986359423572   -264.771329396063
 SCS-DF-MP2-F12/3*C(FIX)               -0.963049135850   -264.748019108341
 SCS-DF-MP2-F12/3C(FIX)                -0.963497712285   -264.748467684776
 Symmetry transformation completed.

 Number of N-1 electron functions:              12
 Number of N-2 electron functions:              78
 Number of singly external CSFs:              2568
 Number of doubly external CSFs:           3298596
 Total number of CSFs:                     3301165

 Pair and operator lists are different

 Length of J-op  integral file:             474.22 MB
 Length of K-op  integral file:             572.29 MB
 Length of 3-ext integral record:             0.00 MB

 For full I/O caching in triples, increase memory by 50.81 Mwords to 151.09 Mwords.

 Integral transformation finished. Total CPU:  33.92 sec, npass=  1  Memory used:  87.46 MW

 Reference energy:                   -263.78496997

 Adding F12 terms to K(Cij), methodcc=6,  factor=1.0

 ITER.      SQ.NORM     CORR.ENERGY   TOTAL ENERGY   ENERGY CHANGE        DEN1      VAR(S)    VAR(P)  DIIS     TIME
   1      1.20218608    -0.86289369  -264.64786366     0.01809270     0.04676376  0.72D-02  0.56D-02  1  1    51.39
   2      1.21651345    -0.85865260  -264.64362257     0.00424109    -0.02017462  0.86D-04  0.59D-03  2  2    61.47
   3      1.22187780    -0.85874770  -264.64371767    -0.00009510    -0.00236174  0.13D-03  0.32D-04  3  3    70.97
   4      1.22468495    -0.85861901  -264.64358898     0.00012869    -0.00141283  0.76D-05  0.41D-05  4  4    81.68
   5      1.22571855    -0.85858103  -264.64355100     0.00003799    -0.00036749  0.56D-06  0.29D-06  5  5   102.86
   6      1.22588132    -0.85855409  -264.64352406     0.00002694    -0.00000807  0.40D-07  0.24D-07  6  6   113.08
   7      1.22591085    -0.85855164  -264.64352161     0.00000245    -0.00000622  0.27D-08  0.41D-08  6  4   123.54
   8      1.22591121    -0.85855114  -264.64352111     0.00000050     0.00000193  0.40D-09  0.28D-09  6  1   132.67
   9      1.22591181    -0.85855121  -264.64352118    -0.00000007     0.00000058  0.28D-10  0.22D-10  6  2   141.67

 Norm of t1 vector:      0.10607425      S-energy:     0.00000053      T1 diagnostic:  0.01531050
                                                                       D1 diagnostic:  0.04500506

 Adding energy correction from Wij-K(Fij), methodcc=6  factor=1.0
 
  CCSD correlation energy              -0.858551207801
  MP2-F12 correction (uncoupled)       -0.092469792956
  C*T doubles correction               -0.001477668090
  f12b correction                       0.015404893410


 Total CPU time for triples:    260.40 sec


 RESULTS
 =======

  Reference energy                   -263.769037795441
  F12 singles correction               -0.015932177050

 F12 singles corrections added to reference energy

  New reference energy               -263.784969972491

  F12a singlet correction              -0.080411291911
  F12a triplet correction              -0.013536169136
  F12a total correction                -0.093947461046

 F12a corrections for ansatz F12/3C(FIX) added to CCSD energy
 
  CCSD-F12a singlet pair energy        -0.641946379582
  CCSD-F12a triplet pair energy        -0.310552820370
  CCSD-F12a correlation energy         -0.952498668848

  Triples (T) contribution             -0.037665022307
  Total correlation energy             -0.990163691155

  CCSD-F12a total energy             -264.737468641338
  CCSD[T]-F12a energy                -264.777683056866
  CCSD-T-F12a energy                 -264.774194182058
 !CCSD(T)-F12a total energy          -264.775133663646

 F12b corrections for ansatz F12/3C(FIX) added to CCSD(T)-F12a energy

  CCSD-F12b singlet pair energy        -0.627764606303
  CCSD-F12b triplet pair energy        -0.309329700239
  CCSD-F12b correlation energy         -0.937093775438

  Triples (T) contribution             -0.037665022307
  Total correlation energy             -0.974758797745

  CCSD-F12b total energy             -264.722063747929
  CCSD[T]-F12b energy                -264.762278163456
  CCSD-T-F12b energy                 -264.758789288648
 !CCSD(T)-F12b total energy          -264.759728770236

 Timing summary (sec):

 STEP                 CPU(USER)    SYS     CPU(TOT)    WALL
 Transformation         34.03     13.02     47.05     66.80
 CCSD iterations        99.64     12.55    112.19    126.48
 Triples               260.40      4.57    264.97    271.36
 MP2-F12                 8.04      1.29      9.33      9.34
 F12b energy             5.90      0.14      6.04      6.83

 Program statistics:

 Available memory in ccsd:                99998934
 Min. memory needed in ccsd:               8644845
 Max. memory used in ccsd:                11598633
 Max. memory used in cckext:               8768967 (10 integral passes)



 **********************************************************************************************************************************
 DATASETS  * FILE   NREC   LENGTH (MB)   RECORD NAMES
              1      20      527.84       500      610      700      900      950      970     1000      129      960     1100   
                                          VAR    BASINP    GEOM    SYMINP    ZMAT    AOBASIS   BASIS     P2S    ABASIS      S 
                                         1400     1410     1200     1210     1080     1600     1650     1700      960(1)  1380   
                                           T        V       H0       H01     AOSYM     SMH    MOLCAS    OPER    ABASIS    JKOP   

              2       5        2.50       700     1000     2100     7360     7350   
                                         GEOM     BASIS     RHF    F12ABS    EF12   

 PROGRAMS   *        TOTAL   CCSD(T)        HF       INT
 CPU TIMES  *       422.80    408.12      8.38      6.24
 REAL TIME  *       509.68 SEC
 DISK USED  *         2.65 GB      
 SF USED    *         1.91 GB      
 GA USED    *         2.40 MB       (max)       0.00 MB       (current)
 **********************************************************************************************************************************

     CCSD(T)-F12        HF-SCF  
   -264.75972877   -263.76903780
 **********************************************************************************************************************************
 Variable memory released
