
 Primary working directories    : /scratch/kee
 Secondary working directories  : /scratch/kee
 Wavefunction directory         : /home/kee/wfu/
 Main file repository           : /scratch/kee/

 ARCHNAME  : Linux/x86_64
 FC        : /opt/intel/composer_xe_2015.0.090/bin/intel64/ifort
 FCVERSION : 15.0.0
 BLASLIB   : -L/opt/intel/mkl/lib/intel64 -lmkl_intel_ilp64 -lmkl_sequential -lmkl_core
 id        : emory

 Nodes     nprocs
 node18       3
 Number of processes for MPI-2 version of Molpro:   nprocs(total)=    4   nprocs(compute)=    3   nprocs(helper)=    1
 ga_uses_ma=false, calling ma_init with nominal heap.
 GA-space will be limited to   8.0 MW (determined by -G option)

 Using customized tuning parameters: mindgm=7; mindgv=32; mindgc=1; mindgr=1; noblas=0; mincuda=1000; minvec=7
 default implementation of scratch files=sf  

 ***,co2h2o
 memory,100,m
 basis avtz
 geomtype = xyz
 geometry = {
 6
    -264.76489694
 O     0.82869278    1.16169550    0.00000000
 O     0.82658011   -1.16233555    0.00000000
 O    -3.09123451    0.00122966    0.00000000
 H    -3.67486752    0.76182431    0.00000000
 H    -3.67459941   -0.75957226    0.00000000
 C     0.80876519   -0.00029961    0.00000000
 }
 hf
 ccsd(t)-f12
 ---

 Variables initialized (665), CPU time= 0.01 sec
 Commands  initialized (462), CPU time= 0.01 sec, 486 directives.
 Default parameters read. Elapsed time= 0.05 sec

 Checking input...
 Passed
1


                                         ***  PROGRAM SYSTEM MOLPRO  ***
                         Copyright, University College Cardiff Consultants Limited, 2008

                                    Version 2010.1 linked 9 Dec 2014 15:06:28 


 **********************************************************************************************************************************
 LABEL *   co2h2o                                                                        
 Linux-2.6.32-504.el6.x86_64/node18(x86_64) 64 bit mpp version                           DATE: 11-Dec-16          TIME: 23:25:25  
 **********************************************************************************************************************************

 Patch level:      19
 **********************************************************************************************************************************

 Variable memory set to  100000000 words,  buffer space   230000 words

 SETTING BASIS          =    AVTZ
 SETTING GEOMTYPE       =    XYZ

Geometry recognized as XYZ



 Recomputing integrals since basis changed


 Using spherical harmonics

 Library entry O      S aug-cc-pVTZ          selected for orbital group  1
 Library entry O      P aug-cc-pVTZ          selected for orbital group  1
 Library entry O      D aug-cc-pVTZ          selected for orbital group  1
 Library entry O      F aug-cc-pVTZ          selected for orbital group  1
 Library entry H      S aug-cc-pVTZ          selected for orbital group  2
 Library entry H      P aug-cc-pVTZ          selected for orbital group  2
 Library entry H      D aug-cc-pVTZ          selected for orbital group  2
 Library entry C      S aug-cc-pVTZ          selected for orbital group  3
 Library entry C      P aug-cc-pVTZ          selected for orbital group  3
 Library entry C      D aug-cc-pVTZ          selected for orbital group  3
 Library entry C      F aug-cc-pVTZ          selected for orbital group  3

1PROGRAM * SEWARD (Integral evaluation for generally contracted gaussian basis sets)     Author: Roland Lindh, 1990

 Geometry written to block  1 of record 700


 Point group  Cs  



 ATOMIC COORDINATES

 NR  ATOM    CHARGE       X              Y              Z

   1  O       8.00    1.566002401    2.195286343    0.000000000
   2  O       8.00    1.562010034   -2.196495862    0.000000000
   3  O       8.00   -5.841586632    0.002323721    0.000000000
   4  H       1.00   -6.944493182    1.439639306    0.000000000
   5  H       1.00   -6.943986528   -1.435383548    0.000000000
   6  C       6.00    1.528344714   -0.000566181    0.000000000

 Bond lengths in Bohr (Angstrom)

 1-6  2.196175405  2-6  2.196187724  3-4  1.811706088  3-5  1.811708509
     (1.162165971)     (1.162172490)     (0.958713571)     (0.958714852)

 Bond angles

  1-6-2  178.13918425   4-3-5  105.01947441

 NUCLEAR CHARGE:                   32
 NUMBER OF PRIMITIVE AOS:         322
 NUMBER OF SYMMETRY AOS:          282
 NUMBER OF CONTRACTIONS:          230   ( 152A'  +  78A"  )
 NUMBER OF CORE ORBITALS:           4   (   4A'  +   0A"  )
 NUMBER OF VALENCE ORBITALS:       18   (  14A'  +   4A"  )


 NUCLEAR REPULSION ENERGY   95.54712193


 Eigenvalues of metric

         1 0.326E-03 0.355E-03 0.363E-03 0.371E-03 0.892E-03 0.907E-03 0.145E-02 0.162E-02
         2 0.316E-02 0.347E-02 0.561E-02 0.124E-01 0.134E-01 0.278E-01 0.296E-01 0.310E-01


 Contracted 2-electron integrals neglected if value below      1.0D-11
 AO integral compression algorithm  1   Integral accuracy      1.0D-11

     589.562 MB (compressed) written to integral file ( 35.5%)

     Node minimum: 180.093 MB, node maximum: 209.191 MB


 NUMBER OF SORTED TWO-ELECTRON INTEGRALS:   59950380.     BUFFER LENGTH:  32768
 NUMBER OF SEGMENTS:   4  SEGMENT LENGTH:   15995235      RECORD LENGTH: 524288

 Memory used in sort:      16.55 MW

 SORT1 READ   207531521. AND WROTE    46212069. INTEGRALS IN    134 RECORDS. CPU TIME:     3.43 SEC, REAL TIME:     3.91 SEC
 SORT2 READ   139333830. AND WROTE   179836431. INTEGRALS IN   2394 RECORDS. CPU TIME:     1.25 SEC, REAL TIME:     1.61 SEC

 Node minimum:    59940574.  Node maximum:    59950380. integrals

 OPERATOR DM      FOR CENTER  0  COORDINATES:    0.000000    0.000000    0.000000


 **********************************************************************************************************************************
 DATASETS  * FILE   NREC   LENGTH (MB)   RECORD NAMES
              1      18        3.74       500      610      700      900      950      970     1000      129      960     1100   
                                          VAR    BASINP    GEOM    SYMINP    ZMAT    AOBASIS   BASIS     P2S    ABASIS      S 
                                         1400     1410     1200     1210     1080     1600     1650     1700   
                                           T        V       H0       H01     AOSYM     SMH    MOLCAS    OPER   

 PROGRAMS   *        TOTAL       INT
 CPU TIMES  *         9.94      9.83
 REAL TIME  *        11.18 SEC
 DISK USED  *         2.25 GB      
 GA USED    *         0.00 MB       (max)       0.00 MB       (current)
 **********************************************************************************************************************************

1PROGRAM * RHF-SCF (CLOSED SHELL)       Authors: W. Meyer, H.-J. Werner


 NUMBER OF ELECTRONS:      16+   16-
 CONVERGENCE THRESHOLDS:    1.00E-05 (Density)    1.00E-07 (Energy)
 MAX. NUMBER OF ITERATIONS:       60
 INTERPOLATION TYPE:            DIIS
 INTERPOLATION STEPS:              2 (START)      1 (STEP)
 LEVEL SHIFTS:                  0.00 (CLOSED)  0.00 (OPEN) 



 Orbital guess generated from atomic densities. Full valence occupancy:   18   4

 Molecular orbital dump at record        2100.2

 Initial alpha occupancy:  13   3
 Initial beta  occupancy:  13   3
 Wave function symmetry:    1

 ITERATION    DDIFF          GRAD             ENERGY        2-EL.EN.            DIPOLE MOMENTS         DIIS
    1      0.000D+00      0.000D+00      -263.66386060    387.127003   -1.18567   -0.00012    0.00000    0
    2      0.000D+00      0.625D-02      -263.72848222    382.411887   -0.75358   -0.00008    0.00000    1
    3      0.100D-01      0.422D-02      -263.77053076    384.970665   -0.85640   -0.00007    0.00000    2
    4      0.411D-02      0.403D-03      -263.77102617    384.767900   -0.85901   -0.00008    0.00000    3
    5      0.487D-03      0.118D-03      -263.77108429    384.764650   -0.85429   -0.00007    0.00000    4
    6      0.182D-03      0.478D-04      -263.77109160    384.780323   -0.85508   -0.00008    0.00000    5
    7      0.609D-04      0.115D-04      -263.77109233    384.771780   -0.85467   -0.00007    0.00000    6
    8      0.197D-04      0.253D-05      -263.77109238    384.773107   -0.85469   -0.00007    0.00000    7
    9      0.539D-05      0.848D-06      -263.77109238    384.772894   -0.85466   -0.00007    0.00000    0

 Final occupancy:  13   3

 !RHF STATE 1.1 Energy               -263.771092378162
 Nuclear energy                        95.54712193
 One-electron energy                 -551.70466124
 Two-electron energy                  192.38644693
 Virial quotient                       -1.00184589
 !RHF STATE 1.1 Dipole moment          -0.85465801    -0.00007382     0.00000000
 Dipole moment /Debye                  -2.17218169    -0.00018761     0.00000000

 Orbital energies:

         1.1          2.1          3.1          4.1          5.1          6.1          7.1          8.1          9.1         10.1
    -20.641012   -20.640967   -20.572171   -11.450253    -1.518680    -1.465684    -1.357451    -0.789462    -0.731849    -0.722851

        11.1         12.1         13.1         14.1         15.1
     -0.702417    -0.589501    -0.532625     0.027309     0.047499

         1.2          2.2          3.2          4.2          5.2
     -0.702919    -0.532789    -0.515252     0.081283     0.164833


 **********************************************************************************************************************************
 DATASETS  * FILE   NREC   LENGTH (MB)   RECORD NAMES
              1      18        3.76       500      610      700      900      950      970     1000      129      960     1100   
                                          VAR    BASINP    GEOM    SYMINP    ZMAT    AOBASIS   BASIS     P2S    ABASIS      S 
                                         1400     1410     1200     1210     1080     1600     1650     1700   
                                           T        V       H0       H01     AOSYM     SMH    MOLCAS    OPER   

              2       3        0.96       700     1000     2100   
                                         GEOM     BASIS     RHF  

 PROGRAMS   *        TOTAL        HF       INT
 CPU TIMES  *        14.75      4.81      9.83
 REAL TIME  *        16.27 SEC
 DISK USED  *         2.27 GB      
 SF USED    *         0.12 MB      
 GA USED    *         0.00 MB       (max)       0.00 MB       (current)
 **********************************************************************************************************************************


1PROGRAM * CCSD (Closed-shell coupled cluster)     Authors: C. Hampel, H.-J. Werner, 1991, M. Deegan, P.J. Knowles, 1992

                                  CCSD-F12 implementation by  H.-J. Werner, 2007

                   Density fitting integral evaluation by F.R. Manby, 2003,2007, G. Knizia, 2010

 Basis set CC-PVTZ/JKFIT generated.      Number of basis functions:   376 
 Basis set AUG-CC-PVTZ/MP2FIT generated. Number of basis functions:   516 

 Convergence thresholds:  THRVAR = 1.00D-08  THRDEN = 1.00D-06

 CCSD(T)     terms to be evaluated (factor= 1.000)


 Number of core orbitals:           4 (   4   0 )
 Number of closed-shell orbitals:  12 (   9   3 )
 Number of external orbitals:     214 ( 139  75 )

 Molecular orbitals read from record     2100.2  Type=RHF/CANONICAL (state 1.1)

 MP2-F12 correlation treatment (H.-J. Werner, 2006)
 --------------------------------------------------

 Using MP2-F12 with ansatz 3C(FIX)

 Using projected zeroth-order Hamiltonian (+Z)

 FOCKRIB=T FOCKRIC=T FOCKRIP=T CABSP=T CABSA=T CABSK=T CABSF=T GBC=F EBC=F DMAT=T NOFIK=T NOPAO=1 SOLVE=-1  USEPAO=0
 EXCH_A= T EXCH_B= F EXCH_C= F EXCH_P= F
 
 Geminal basis:    OPTFULL  GEM_TYPE=SLATER  BETA=1.0  NGEM=6

 Optimizing Gaussian exponents for each gem_beta

 Geminal optimization for beta= 1.0000
 Weight function:   m=0, omega= 1.4646

 Augmented Hessian optimization of geminal fit. Trust ratio= 0.40000
 Convergence reached after   2 iterations. Final gradient= 8.24D-16, Step= 4.32D-06, Delta= 1.28D-09
 
 Alpha:                 0.19532     0.81920     2.85917     9.50073    35.69989   197.79328
 Coeff:                 0.27070     0.30552     0.18297     0.10986     0.06810     0.04224
 

 Symmetry turned off. Reference energy:       -263.771092378161

 All pairs explicitly correlated. Number of r12-pairs:           78
 
 AO(A)-basis ORBITAL           loaded. Number of functions:     230
 RI(R)-basis CC-PVTZ/JKFIT     loaded. Number of functions:     376
 DF-basis CC-PVTZ/JKFIT        loaded. Number of functions:     376

 Screening thresholds:   THRAO=  1.00D-10  THRMO=  1.00D-09  THRPROD=  1.00D-09
                         THRSW=  1.00D-05  THROV=  1.00D-12  THRF12=   1.00D-08

 CPU time for Fock operators                      1.03 sec
 
 Construction of ABS:
 Smallest eigenvalue of S          2.57E-04  (threshold= 1.00E-08)
 Ratio eigmin/eigmax               1.83E-06  (threshold= 1.00E-09)
 Smallest eigenvalue of S kept     2.57E-04  (threshold= 2.57E-04, 0 functions deleted, 376 kept)
 
 Construction of CABS:
 Smallest eigenvalue of S          2.29E-08  (threshold= 1.00E-08)
 Ratio eigmin/eigmax               2.29E-08  (threshold= 1.00E-09)
 Smallest eigenvalue of S kept     2.29E-08  (threshold= 2.29E-08, 0 functions deleted, 376 kept)
 
 CPU time for CABS singles                        0.17 sec

 CABS-singles contribution of  -0.01591595 patched into reference energy.
 New reference energy        -263.78700832
 
 AO(A)-basis ORBITAL           loaded. Number of functions:     230
 RI(R)-basis CC-PVTZ/JKFIT     loaded. Number of functions:     376
 DF-basis AUG-CC-PVTZ/MP2FIT   loaded. Number of functions:     516

 Screening thresholds:   THRAO=  1.00D-10  THRMO=  1.00D-09  THRPROD=  1.00D-09
                         THRSW=  1.00D-05  THROV=  1.00D-12  THRF12=   1.00D-08

 CPU time for 3-index integral evaluation         3.10 sec
 CPU time for first  half transformation          0.28 sec (10881.1 MFLOP/sec)
 CPU time for second half transformation          0.02 sec ( 5692.0 MFLOP/sec)
 CPU time for sorting                             0.18 sec
 CPU time for fitting                             0.06 sec (23075.5 MFLOP/sec)
 CPU time for tilde quantities                    0.07 sec (26412.6 MFLOP/sec)
 CPU time for assembly                            0.91 sec (26970.6 MFLOP/sec)
 CPU time for tranop_f12                          1.00 sec (31381.5 MFLOP/sec)
 CPU time for f12 integrals (total)               7.85 sec
 F12-matrices built in  3 passes.
 F12-matrices built in  3 passes.
 F12-matrices built in  3 passes.
 F12-matrices built in  3 passes.
 FC-matrix built in  3 passes.
 CPU time for f12 matrices (total)                0.57 sec

 Diagonal F12 approximation with fixed coefficients:  TSING= 0.500,  TTRIP= 0.250 (scaled by -1/beta)

 DF-MP2-F12 energy corrections:
 ------------------------------
 Approx.                                    Singlet             Triplet             Total
 DF-MP2-F12/3*C(DX,FIX)                -0.097399554027     -0.016930039096     -0.114329593123
 DF-MP2-F12/3*C(FIX)                   -0.079830304372     -0.013396978985     -0.093227283358
 DF-MP2-F12/3C(FIX)                    -0.080192512548     -0.013422555321     -0.093615067869

 DF-MP2-F12 correlation energies:
 --------------------------------
 Approx.                                    Singlet             Triplet             Ecorr            Total Energy
 DF-MP2                                -0.537679755999     -0.343210003574     -0.880889759573   -264.667898083854
 DF-MP2-F12/3*C(DX,FIX)                -0.635079310026     -0.360140042670     -0.995219352696   -264.782227676977
 DF-MP2-F12/3*C(FIX)                   -0.617510060372     -0.356606982559     -0.974117042931   -264.761125367212
 DF-MP2-F12/3C(FIX)                    -0.617872268548     -0.356632558894     -0.974504827442   -264.761513151723

 SCS-DF-MP2 energies (F_SING= 1.20000  F_TRIP= 0.62222  F_PARALLEL= 0.33333):
 ----------------------------------------------------------------------------
 SCS-DF-MP2                            -0.858768598312   -264.645776922593
 SCS-DF-MP2-F12/3*C(DX,FIX)            -0.986182309693   -264.773190633974
 SCS-DF-MP2-F12/3*C(FIX)               -0.962900861594   -264.749909185875
 SCS-DF-MP2-F12/3C(FIX)                -0.963351425569   -264.750359749850

 Symmetry restored.
 Symmetry transformation completed.

 Number of N-1 electron functions:              12
 Number of N-2 electron functions:              78
 Number of singly external CSFs:              1476
 Number of doubly external CSFs:           1686804
 Total number of CSFs:                     1688281

 Pair and operator lists are different

 Length of J-op  integral file:             466.42 MB
 Length of K-op  integral file:             526.62 MB
 Length of 3-ext integral record:             0.00 MB

 Memory could be reduced to 76.61 Mwords without degradation in triples

 Integral transformation finished. Total CPU:   5.20 sec, npass=  1  Memory used:  24.61 MW

 Reference energy:                   -263.78700832

 Adding F12 terms to K(Cij), methodcc=6,  factor=1.0

 ITER.      SQ.NORM     CORR.ENERGY   TOTAL ENERGY   ENERGY CHANGE        DEN1      VAR(S)    VAR(P)  DIIS     TIME
   1      1.20210103    -0.86286102  -264.64986934     0.01804459     0.04661865  0.72D-02  0.55D-02  1  1    18.37
   2      1.21639850    -0.85865955  -264.64566788     0.00420146    -0.02012446  0.87D-04  0.59D-03  2  2    21.49
   3      1.22176268    -0.85876113  -264.64576945    -0.00010158    -0.00236586  0.13D-03  0.32D-04  3  3    24.66
   4      1.22456688    -0.85863372  -264.64564205     0.00012741    -0.00141162  0.76D-05  0.41D-05  4  4    27.92
   5      1.22559657    -0.85859617  -264.64560450     0.00003755    -0.00036570  0.56D-06  0.28D-06  5  5    31.17
   6      1.22575862    -0.85856930  -264.64557762     0.00002687    -0.00000802  0.40D-07  0.24D-07  6  6    34.43
   7      1.22578802    -0.85856687  -264.64557520     0.00000242    -0.00000622  0.26D-08  0.40D-08  6  4    37.69
   8      1.22578835    -0.85856638  -264.64557470     0.00000050     0.00000192  0.40D-09  0.27D-09  6  1    40.94
   9      1.22578896    -0.85856644  -264.64557477    -0.00000007     0.00000056  0.27D-10  0.22D-10  6  2    44.21

 Norm of t1 vector:      0.10600025      S-energy:    -0.00000003      T1 diagnostic:  0.01529982
                                                                       D1 diagnostic:  0.04508706

 Adding energy correction from Wij-K(Fij), methodcc=6  factor=1.0
 
  CCSD correlation energy              -0.858566442965
  MP2-F12 correction (uncoupled)       -0.092459597300
  C*T doubles correction               -0.001471647984
  f12b correction                       0.015404797929


 Total CPU time for triples:     82.54 sec


 RESULTS
 =======

  Reference energy                   -263.771092378162
  F12 singles correction               -0.015915946120

 F12 singles corrections added to reference energy

  New reference energy               -263.787008324281

  F12a singlet correction              -0.080391254685
  F12a triplet correction              -0.013539990600
  F12a total correction                -0.093931245284

 F12a corrections for ansatz F12/3C(FIX) added to CCSD energy
 
  CCSD-F12a singlet pair energy        -0.641791815136
  CCSD-F12a triplet pair energy        -0.310705844598
  CCSD-F12a correlation energy         -0.952497688249

  Triples (T) contribution             -0.037663372546
  Total correlation energy             -0.990161060796

  CCSD-F12a total energy             -264.739506012531
  CCSD[T]-F12a energy                -264.779708814422
  CCSD-T-F12a energy                 -264.776234783953
 !CCSD(T)-F12a total energy          -264.777169385077

 F12b corrections for ansatz F12/3C(FIX) added to CCSD(T)-F12a energy

  CCSD-F12b singlet pair energy        -0.627611002414
  CCSD-F12b triplet pair energy        -0.309481859392
  CCSD-F12b correlation energy         -0.937092890320

  Triples (T) contribution             -0.037663372546
  Total correlation energy             -0.974756262867

  CCSD-F12b total energy             -264.724101214602
  CCSD[T]-F12b energy                -264.764304016493
  CCSD-T-F12b energy                 -264.760829986024
 !CCSD(T)-F12b total energy          -264.761764587148

 Timing summary (sec):

 STEP                 CPU(USER)    SYS     CPU(TOT)    WALL
 Transformation          5.23      0.62      5.85      5.84
 CCSD iterations        28.89      1.91     30.80     31.14
 Triples                82.54      1.65     84.19     84.15
 MP2-F12                10.10      1.48     11.58     12.99
 F12b energy             2.16      0.04      2.20      2.20

 Program statistics:

 Available memory in ccsd:                99998934
 Min. memory needed in ccsd:               4458306
 Max. memory used in ccsd:                 5958390
 Max. memory used in cckext:               6352469 (10 integral passes)



 **********************************************************************************************************************************
 DATASETS  * FILE   NREC   LENGTH (MB)   RECORD NAMES
              1      20      269.66       500      610      700      900      950      970     1000      129      960     1100   
                                          VAR    BASINP    GEOM    SYMINP    ZMAT    AOBASIS   BASIS     P2S    ABASIS      S 
                                         1400     1410     1200     1210     1080     1600     1650     1700      960(1)  1380   
                                           T        V       H0       H01     AOSYM     SMH    MOLCAS    OPER    ABASIS    JKOP   

              2       5        1.55       700     1000     2100     7360     7350   
                                         GEOM     BASIS     RHF    F12ABS    EF12   

 PROGRAMS   *        TOTAL   CCSD(T)        HF       INT
 CPU TIMES  *       143.97    129.22      4.81      9.83
 REAL TIME  *       152.91 SEC
 DISK USED  *         2.71 GB      
 SF USED    *         1.53 GB      
 GA USED    *         2.40 MB       (max)       0.00 MB       (current)
 **********************************************************************************************************************************

     CCSD(T)-F12        HF-SCF  
   -264.76176459   -263.77109238
 **********************************************************************************************************************************
 Variable memory released
