
 Primary working directories    : /scratch/kee
 Secondary working directories  : /scratch/kee
 Wavefunction directory         : /home/kee/wfu/
 Main file repository           : /scratch/kee/

 ARCHNAME  : Linux/x86_64
 FC        : /opt/intel/composer_xe_2015.0.090/bin/intel64/ifort
 FCVERSION : 15.0.0
 BLASLIB   : -L/opt/intel/mkl/lib/intel64 -lmkl_intel_ilp64 -lmkl_sequential -lmkl_core
 id        : emory

 Nodes     nprocs
 node18       3
 Number of processes for MPI-2 version of Molpro:   nprocs(total)=    4   nprocs(compute)=    3   nprocs(helper)=    1
 ga_uses_ma=false, calling ma_init with nominal heap.
 GA-space will be limited to   8.0 MW (determined by -G option)

 Using customized tuning parameters: mindgm=7; mindgv=32; mindgc=1; mindgr=1; noblas=0; mincuda=1000; minvec=7
 default implementation of scratch files=sf  

 ***,co2h2o
 memory,100,m
 basis avtz
 geomtype = xyz
 geometry = {
 6
    -264.76489694
 O     0.82869278    1.16169550    0.00000000
 O     0.82658011   -1.16233555    0.00000000
 O    -3.04123451    0.00121005    0.00000000
 H    -3.62486752    0.76180470    0.00000000
 H    -3.62459941   -0.75959187    0.00000000
 C     0.80876519   -0.00029961    0.00000000
 }
 hf
 ccsd(t)-f12
 ---

 Variables initialized (665), CPU time= 0.00 sec
 Commands  initialized (462), CPU time= 0.01 sec, 486 directives.
 Default parameters read. Elapsed time= 0.05 sec

 Checking input...
 Passed
1


                                         ***  PROGRAM SYSTEM MOLPRO  ***
                         Copyright, University College Cardiff Consultants Limited, 2008

                                    Version 2010.1 linked 9 Dec 2014 15:06:28 


 **********************************************************************************************************************************
 LABEL *   co2h2o                                                                        
 Linux-2.6.32-504.el6.x86_64/node18(x86_64) 64 bit mpp version                           DATE: 11-Dec-16          TIME: 23:22:46  
 **********************************************************************************************************************************

 Patch level:      19
 **********************************************************************************************************************************

 Variable memory set to  100000000 words,  buffer space   230000 words

 SETTING BASIS          =    AVTZ
 SETTING GEOMTYPE       =    XYZ

Geometry recognized as XYZ



 Recomputing integrals since basis changed


 Using spherical harmonics

 Library entry O      S aug-cc-pVTZ          selected for orbital group  1
 Library entry O      P aug-cc-pVTZ          selected for orbital group  1
 Library entry O      D aug-cc-pVTZ          selected for orbital group  1
 Library entry O      F aug-cc-pVTZ          selected for orbital group  1
 Library entry H      S aug-cc-pVTZ          selected for orbital group  2
 Library entry H      P aug-cc-pVTZ          selected for orbital group  2
 Library entry H      D aug-cc-pVTZ          selected for orbital group  2
 Library entry C      S aug-cc-pVTZ          selected for orbital group  3
 Library entry C      P aug-cc-pVTZ          selected for orbital group  3
 Library entry C      D aug-cc-pVTZ          selected for orbital group  3
 Library entry C      F aug-cc-pVTZ          selected for orbital group  3

1PROGRAM * SEWARD (Integral evaluation for generally contracted gaussian basis sets)     Author: Roland Lindh, 1990

 Geometry written to block  1 of record 700


 Point group  Cs  



 ATOMIC COORDINATES

 NR  ATOM    CHARGE       X              Y              Z

   1  O       8.00    1.566002401    2.195286343    0.000000000
   2  O       8.00    1.562010034   -2.196495862    0.000000000
   3  O       8.00   -5.747100325    0.002286663    0.000000000
   4  H       1.00   -6.850006875    1.439602249    0.000000000
   5  H       1.00   -6.849500221   -1.435420606    0.000000000
   6  C       6.00    1.528344714   -0.000566181    0.000000000

 Bond lengths in Bohr (Angstrom)

 1-6  2.196175405  2-6  2.196187724  3-4  1.811706088  3-5  1.811708509
     (1.162165971)     (1.162172490)     (0.958713571)     (0.958714852)

 Bond angles

  1-6-2  178.13918425   4-3-5  105.01947441

 NUCLEAR CHARGE:                   32
 NUMBER OF PRIMITIVE AOS:         322
 NUMBER OF SYMMETRY AOS:          282
 NUMBER OF CONTRACTIONS:          230   ( 152A'  +  78A"  )
 NUMBER OF CORE ORBITALS:           4   (   4A'  +   0A"  )
 NUMBER OF VALENCE ORBITALS:       18   (  14A'  +   4A"  )


 NUCLEAR REPULSION ENERGY   95.88079764


 Eigenvalues of metric

         1 0.323E-03 0.353E-03 0.363E-03 0.370E-03 0.892E-03 0.904E-03 0.143E-02 0.162E-02
         2 0.316E-02 0.347E-02 0.560E-02 0.124E-01 0.134E-01 0.278E-01 0.296E-01 0.310E-01


 Contracted 2-electron integrals neglected if value below      1.0D-11
 AO integral compression algorithm  1   Integral accuracy      1.0D-11

     596.115 MB (compressed) written to integral file ( 35.9%)

     Node minimum: 128.975 MB, node maximum: 246.415 MB


 NUMBER OF SORTED TWO-ELECTRON INTEGRALS:   59950380.     BUFFER LENGTH:  32768
 NUMBER OF SEGMENTS:   4  SEGMENT LENGTH:   15995235      RECORD LENGTH: 524288

 Memory used in sort:      16.55 MW

 SORT1 READ   207531521. AND WROTE    46664910. INTEGRALS IN    135 RECORDS. CPU TIME:     4.44 SEC, REAL TIME:     5.18 SEC
 SORT2 READ   140683346. AND WROTE   179836431. INTEGRALS IN   2526 RECORDS. CPU TIME:     1.35 SEC, REAL TIME:     1.79 SEC

 Node minimum:    59940574.  Node maximum:    59950380. integrals

 OPERATOR DM      FOR CENTER  0  COORDINATES:    0.000000    0.000000    0.000000


 **********************************************************************************************************************************
 DATASETS  * FILE   NREC   LENGTH (MB)   RECORD NAMES
              1      18        3.74       500      610      700      900      950      970     1000      129      960     1100   
                                          VAR    BASINP    GEOM    SYMINP    ZMAT    AOBASIS   BASIS     P2S    ABASIS      S 
                                         1400     1410     1200     1210     1080     1600     1650     1700   
                                           T        V       H0       H01     AOSYM     SMH    MOLCAS    OPER   

 PROGRAMS   *        TOTAL       INT
 CPU TIMES  *        11.93     11.85
 REAL TIME  *        13.75 SEC
 DISK USED  *         2.33 GB      
 GA USED    *         0.00 MB       (max)       0.00 MB       (current)
 **********************************************************************************************************************************

1PROGRAM * RHF-SCF (CLOSED SHELL)       Authors: W. Meyer, H.-J. Werner


 NUMBER OF ELECTRONS:      16+   16-
 CONVERGENCE THRESHOLDS:    1.00E-05 (Density)    1.00E-07 (Energy)
 MAX. NUMBER OF ITERATIONS:       60
 INTERPOLATION TYPE:            DIIS
 INTERPOLATION STEPS:              2 (START)      1 (STEP)
 LEVEL SHIFTS:                  0.00 (CLOSED)  0.00 (OPEN) 



 Orbital guess generated from atomic densities. Full valence occupancy:   18   4

 Molecular orbital dump at record        2100.2

 Initial alpha occupancy:  13   3
 Initial beta  occupancy:  13   3
 Wave function symmetry:    1

 ITERATION    DDIFF          GRAD             ENERGY        2-EL.EN.            DIPOLE MOMENTS         DIIS
    1      0.000D+00      0.000D+00      -263.66403246    387.806239   -1.18593   -0.00012    0.00000    0
    2      0.000D+00      0.624D-02      -263.72862116    383.088830   -0.75651   -0.00008    0.00000    1
    3      0.100D-01      0.421D-02      -263.77060878    385.646406   -0.85840   -0.00007    0.00000    2
    4      0.410D-02      0.403D-03      -263.77110425    385.444086   -0.86097   -0.00008    0.00000    3
    5      0.487D-03      0.118D-03      -263.77116238    385.440599   -0.85627   -0.00007    0.00000    4
    6      0.182D-03      0.478D-04      -263.77116970    385.456321   -0.85706   -0.00007    0.00000    5
    7      0.610D-04      0.115D-04      -263.77117043    385.447774   -0.85665   -0.00007    0.00000    6
    8      0.198D-04      0.253D-05      -263.77117047    385.449102   -0.85667   -0.00007    0.00000    7
    9      0.538D-05      0.848D-06      -263.77117048    385.448888   -0.85664   -0.00007    0.00000    0

 Final occupancy:  13   3

 !RHF STATE 1.1 Energy               -263.771170475787
 Nuclear energy                        95.88079764
 One-electron energy                 -552.37641233
 Two-electron energy                  192.72444421
 Virial quotient                       -1.00184645
 !RHF STATE 1.1 Dipole moment          -0.85664160    -0.00007294     0.00000000
 Dipole moment /Debye                  -2.17722316    -0.00018539     0.00000000

 Orbital energies:

         1.1          2.1          3.1          4.1          5.1          6.1          7.1          8.1          9.1         10.1
    -20.640717   -20.640671   -20.572355   -11.449982    -1.518387    -1.465396    -1.357640    -0.789194    -0.731589    -0.723030

        11.1         12.1         13.1         14.1         15.1
     -0.702121    -0.589731    -0.532351     0.027252     0.047514

         1.2          2.2          3.2          4.2          5.2
     -0.702634    -0.532516    -0.515449     0.081372     0.165101


 **********************************************************************************************************************************
 DATASETS  * FILE   NREC   LENGTH (MB)   RECORD NAMES
              1      18        3.76       500      610      700      900      950      970     1000      129      960     1100   
                                          VAR    BASINP    GEOM    SYMINP    ZMAT    AOBASIS   BASIS     P2S    ABASIS      S 
                                         1400     1410     1200     1210     1080     1600     1650     1700   
                                           T        V       H0       H01     AOSYM     SMH    MOLCAS    OPER   

              2       3        0.96       700     1000     2100   
                                         GEOM     BASIS     RHF  

 PROGRAMS   *        TOTAL        HF       INT
 CPU TIMES  *        16.85      4.92     11.85
 REAL TIME  *        19.38 SEC
 DISK USED  *         2.36 GB      
 SF USED    *         0.12 MB      
 GA USED    *         0.00 MB       (max)       0.00 MB       (current)
 **********************************************************************************************************************************


1PROGRAM * CCSD (Closed-shell coupled cluster)     Authors: C. Hampel, H.-J. Werner, 1991, M. Deegan, P.J. Knowles, 1992

                                  CCSD-F12 implementation by  H.-J. Werner, 2007

                   Density fitting integral evaluation by F.R. Manby, 2003,2007, G. Knizia, 2010

 Basis set CC-PVTZ/JKFIT generated.      Number of basis functions:   376 
 Basis set AUG-CC-PVTZ/MP2FIT generated. Number of basis functions:   516 

 Convergence thresholds:  THRVAR = 1.00D-08  THRDEN = 1.00D-06

 CCSD(T)     terms to be evaluated (factor= 1.000)


 Number of core orbitals:           4 (   4   0 )
 Number of closed-shell orbitals:  12 (   9   3 )
 Number of external orbitals:     214 ( 139  75 )

 Molecular orbitals read from record     2100.2  Type=RHF/CANONICAL (state 1.1)

 MP2-F12 correlation treatment (H.-J. Werner, 2006)
 --------------------------------------------------

 Using MP2-F12 with ansatz 3C(FIX)

 Using projected zeroth-order Hamiltonian (+Z)

 FOCKRIB=T FOCKRIC=T FOCKRIP=T CABSP=T CABSA=T CABSK=T CABSF=T GBC=F EBC=F DMAT=T NOFIK=T NOPAO=1 SOLVE=-1  USEPAO=0
 EXCH_A= T EXCH_B= F EXCH_C= F EXCH_P= F
 
 Geminal basis:    OPTFULL  GEM_TYPE=SLATER  BETA=1.0  NGEM=6

 Optimizing Gaussian exponents for each gem_beta

 Geminal optimization for beta= 1.0000
 Weight function:   m=0, omega= 1.4646

 Augmented Hessian optimization of geminal fit. Trust ratio= 0.40000
 Convergence reached after   2 iterations. Final gradient= 8.24D-16, Step= 4.32D-06, Delta= 1.28D-09
 
 Alpha:                 0.19532     0.81920     2.85917     9.50073    35.69989   197.79328
 Coeff:                 0.27070     0.30552     0.18297     0.10986     0.06810     0.04224
 

 Symmetry turned off. Reference energy:       -263.771170475787

 All pairs explicitly correlated. Number of r12-pairs:           78
 
 AO(A)-basis ORBITAL           loaded. Number of functions:     230
 RI(R)-basis CC-PVTZ/JKFIT     loaded. Number of functions:     376
 DF-basis CC-PVTZ/JKFIT        loaded. Number of functions:     376

 Screening thresholds:   THRAO=  1.00D-10  THRMO=  1.00D-09  THRPROD=  1.00D-09
                         THRSW=  1.00D-05  THROV=  1.00D-12  THRF12=   1.00D-08

 CPU time for Fock operators                      1.09 sec
 
 Construction of ABS:
 Smallest eigenvalue of S          2.57E-04  (threshold= 1.00E-08)
 Ratio eigmin/eigmax               1.83E-06  (threshold= 1.00E-09)
 Smallest eigenvalue of S kept     2.57E-04  (threshold= 2.57E-04, 0 functions deleted, 376 kept)
 
 Construction of CABS:
 Smallest eigenvalue of S          2.29E-08  (threshold= 1.00E-08)
 Ratio eigmin/eigmax               2.29E-08  (threshold= 1.00E-09)
 Smallest eigenvalue of S kept     2.29E-08  (threshold= 2.29E-08, 0 functions deleted, 376 kept)
 
 CPU time for CABS singles                        0.18 sec

 CABS-singles contribution of  -0.01591597 patched into reference energy.
 New reference energy        -263.78708644
 
 AO(A)-basis ORBITAL           loaded. Number of functions:     230
 RI(R)-basis CC-PVTZ/JKFIT     loaded. Number of functions:     376
 DF-basis AUG-CC-PVTZ/MP2FIT   loaded. Number of functions:     516

 Screening thresholds:   THRAO=  1.00D-10  THRMO=  1.00D-09  THRPROD=  1.00D-09
                         THRSW=  1.00D-05  THROV=  1.00D-12  THRF12=   1.00D-08

 CPU time for 3-index integral evaluation         3.06 sec
 CPU time for first  half transformation          0.29 sec (10217.6 MFLOP/sec)
 CPU time for second half transformation          0.02 sec ( 5599.5 MFLOP/sec)
 CPU time for sorting                             0.18 sec
 CPU time for fitting                             0.06 sec (23217.5 MFLOP/sec)
 CPU time for tilde quantities                    0.05 sec (36977.6 MFLOP/sec)
 CPU time for assembly                            0.90 sec (26452.0 MFLOP/sec)
 CPU time for tranop_f12                          1.02 sec (30441.4 MFLOP/sec)
 CPU time for f12 integrals (total)               7.92 sec
 F12-matrices built in  3 passes.
 F12-matrices built in  3 passes.
 F12-matrices built in  3 passes.
 F12-matrices built in  3 passes.
 FC-matrix built in  3 passes.
 CPU time for f12 matrices (total)                0.56 sec

 Diagonal F12 approximation with fixed coefficients:  TSING= 0.500,  TTRIP= 0.250 (scaled by -1/beta)

 DF-MP2-F12 energy corrections:
 ------------------------------
 Approx.                                    Singlet             Triplet             Total
 DF-MP2-F12/3*C(DX,FIX)                -0.097396968094     -0.016930448762     -0.114327416856
 DF-MP2-F12/3*C(FIX)                   -0.079828396287     -0.013397880988     -0.093226277275
 DF-MP2-F12/3C(FIX)                    -0.080190612430     -0.013423620102     -0.093614232532

 DF-MP2-F12 correlation energies:
 --------------------------------
 Approx.                                    Singlet             Triplet             Ecorr            Total Energy
 DF-MP2                                -0.537680873005     -0.343226251545     -0.880907124550   -264.667993568311
 DF-MP2-F12/3*C(DX,FIX)                -0.635077841100     -0.360156700306     -0.995234541406   -264.782320985167
 DF-MP2-F12/3*C(FIX)                   -0.617509269292     -0.356624132533     -0.974133401825   -264.761219845586
 DF-MP2-F12/3C(FIX)                    -0.617871485435     -0.356649871646     -0.974521357082   -264.761607800842

 SCS-DF-MP2 energies (F_SING= 1.20000  F_TRIP= 0.62222  F_PARALLEL= 0.33333):
 ----------------------------------------------------------------------------
 SCS-DF-MP2                            -0.858780048567   -264.645866492328
 SCS-DF-MP2-F12/3*C(DX,FIX)            -0.986190911733   -264.773277355493
 SCS-DF-MP2-F12/3*C(FIX)               -0.962910583393   -264.749997027154
 SCS-DF-MP2-F12/3C(FIX)                -0.963361258213   -264.750447701974

 Symmetry restored.
 Symmetry transformation completed.

 Number of N-1 electron functions:              12
 Number of N-2 electron functions:              78
 Number of singly external CSFs:              1476
 Number of doubly external CSFs:           1686804
 Total number of CSFs:                     1688281

 Pair and operator lists are different

 Length of J-op  integral file:             466.42 MB
 Length of K-op  integral file:             526.62 MB
 Length of 3-ext integral record:             0.00 MB

 Memory could be reduced to 76.61 Mwords without degradation in triples

 Integral transformation finished. Total CPU:   5.07 sec, npass=  1  Memory used:  24.61 MW

 Reference energy:                   -263.78708644

 Adding F12 terms to K(Cij), methodcc=6,  factor=1.0

 ITER.      SQ.NORM     CORR.ENERGY   TOTAL ENERGY   ENERGY CHANGE        DEN1      VAR(S)    VAR(P)  DIIS     TIME
   1      1.20210146    -0.86287816  -264.64996460     0.01804478     0.04661676  0.72D-02  0.55D-02  1  1    18.63
   2      1.21639868    -0.85867777  -264.64576421     0.00420039    -0.02012367  0.87D-04  0.59D-03  2  2    22.36
   3      1.22176316    -0.85877959  -264.64586604    -0.00010182    -0.00236588  0.13D-03  0.32D-04  3  3    25.83
   4      1.22456758    -0.85865218  -264.64573863     0.00012741    -0.00141167  0.76D-05  0.41D-05  4  4    29.27
   5      1.22559727    -0.85861464  -264.64570109     0.00003754    -0.00036567  0.56D-06  0.28D-06  5  5    32.70
   6      1.22575932    -0.85858777  -264.64567421     0.00002688    -0.00000802  0.40D-07  0.24D-07  6  6    36.10
   7      1.22578872    -0.85858534  -264.64567179     0.00000243    -0.00000622  0.26D-08  0.40D-08  6  4    40.09
   8      1.22578906    -0.85858484  -264.64567129     0.00000050     0.00000192  0.40D-09  0.27D-09  6  1    43.52
   9      1.22578966    -0.85858491  -264.64567135    -0.00000007     0.00000056  0.27D-10  0.22D-10  6  2    46.99

 Norm of t1 vector:      0.10600533      S-energy:    -0.00000003      T1 diagnostic:  0.01530055
                                                                       D1 diagnostic:  0.04509634

 Adding energy correction from Wij-K(Fij), methodcc=6  factor=1.0
 
  CCSD correlation energy              -0.858584910917
  MP2-F12 correction (uncoupled)       -0.092458930424
  C*T doubles correction               -0.001471508529
  f12b correction                       0.015404812340


 Total CPU time for triples:     78.27 sec


 RESULTS
 =======

  Reference energy                   -263.771170475787
  F12 singles correction               -0.015915967974

 F12 singles corrections added to reference energy

  New reference energy               -263.787086443761

  F12a singlet correction              -0.080389454851
  F12a triplet correction              -0.013540984102
  F12a total correction                -0.093930438953

 F12a corrections for ansatz F12/3C(FIX) added to CCSD energy
 
  CCSD-F12a singlet pair energy        -0.641789049901
  CCSD-F12a triplet pair energy        -0.310726271187
  CCSD-F12a correlation energy         -0.952515349870

  Triples (T) contribution             -0.037666711039
  Total correlation energy             -0.990182060910

  CCSD-F12a total energy             -264.739601793631
  CCSD[T]-F12a energy                -264.779807859136
  CCSD-T-F12a energy                 -264.776334015110
 !CCSD(T)-F12a total energy          -264.777268504671

 F12b corrections for ansatz F12/3C(FIX) added to CCSD(T)-F12a energy

  CCSD-F12b singlet pair energy        -0.627608316902
  CCSD-F12b triplet pair energy        -0.309502191846
  CCSD-F12b correlation energy         -0.937110537530

  Triples (T) contribution             -0.037666711039
  Total correlation energy             -0.974777248569

  CCSD-F12b total energy             -264.724196981291
  CCSD[T]-F12b energy                -264.764403046796
  CCSD-T-F12b energy                 -264.760929202770
 !CCSD(T)-F12b total energy          -264.761863692330

 Timing summary (sec):

 STEP                 CPU(USER)    SYS     CPU(TOT)    WALL
 Transformation          5.10      0.59      5.69      5.69
 CCSD iterations        31.63      1.77     33.40     33.61
 Triples                78.27      1.64     79.91     79.90
 MP2-F12                10.28      1.28     11.56     11.57
 F12b energy             2.26      0.05      2.31      2.32

 Program statistics:

 Available memory in ccsd:                99998934
 Min. memory needed in ccsd:               4458306
 Max. memory used in ccsd:                 5958390
 Max. memory used in cckext:               6352469 (10 integral passes)



 **********************************************************************************************************************************
 DATASETS  * FILE   NREC   LENGTH (MB)   RECORD NAMES
              1      20      269.66       500      610      700      900      950      970     1000      129      960     1100   
                                          VAR    BASINP    GEOM    SYMINP    ZMAT    AOBASIS   BASIS     P2S    ABASIS      S 
                                         1400     1410     1200     1210     1080     1600     1650     1700      960(1)  1380   
                                           T        V       H0       H01     AOSYM     SMH    MOLCAS    OPER    ABASIS    JKOP   

              2       5        1.55       700     1000     2100     7360     7350   
                                         GEOM     BASIS     RHF    F12ABS    EF12   

 PROGRAMS   *        TOTAL   CCSD(T)        HF       INT
 CPU TIMES  *       144.43    127.57      4.92     11.85
 REAL TIME  *       152.77 SEC
 DISK USED  *         2.79 GB      
 SF USED    *         1.53 GB      
 GA USED    *         2.40 MB       (max)       0.00 MB       (current)
 **********************************************************************************************************************************

     CCSD(T)-F12        HF-SCF  
   -264.76186369   -263.77117048
 **********************************************************************************************************************************
 Variable memory released
