
 Primary working directories    : /scratch/kee
 Secondary working directories  : /scratch/kee
 Wavefunction directory         : /home/kee/wfu/
 Main file repository           : /scratch/kee/

 ARCHNAME  : Linux/x86_64
 FC        : /opt/intel/composer_xe_2015.0.090/bin/intel64/ifort
 FCVERSION : 15.0.0
 BLASLIB   : -L/opt/intel/mkl/lib/intel64 -lmkl_intel_ilp64 -lmkl_sequential -lmkl_core
 id        : emory

 Nodes     nprocs
 node18       3
 Number of processes for MPI-2 version of Molpro:   nprocs(total)=    4   nprocs(compute)=    3   nprocs(helper)=    1
 ga_uses_ma=false, calling ma_init with nominal heap.
 GA-space will be limited to   8.0 MW (determined by -G option)

 Using customized tuning parameters: mindgm=7; mindgv=32; mindgc=1; mindgr=1; noblas=0; mincuda=1000; minvec=7
 default implementation of scratch files=sf  

 ***,co2h2o
 memory,100,m
 basis avtz
 geomtype = xyz
 geometry = {
 6
       0.00000000
 O     0.02747900    1.16001200    0.00000000
 O    -0.00936500   -1.16396300    0.00000000
 O     6.57531471   -0.02904374    0.00000000
 H     6.96440971    0.41223026    0.75746400
 H     6.96440971    0.41223026   -0.75746400
 C     0.02536600   -0.00312200    0.00000000
 }
 hf
 ccsd(t)-f12
 ---

 Variables initialized (665), CPU time= 0.00 sec
 Commands  initialized (462), CPU time= 0.01 sec, 486 directives.
 Default parameters read. Elapsed time= 0.03 sec

 Checking input...
 Passed
1


                                         ***  PROGRAM SYSTEM MOLPRO  ***
                         Copyright, University College Cardiff Consultants Limited, 2008

                                    Version 2010.1 linked 9 Dec 2014 15:06:28 


 **********************************************************************************************************************************
 LABEL *   co2h2o                                                                        
 Linux-2.6.32-504.el6.x86_64/node18(x86_64) 64 bit mpp version                           DATE: 14-Dec-16          TIME: 23:48:36  
 **********************************************************************************************************************************

 Patch level:      19
 **********************************************************************************************************************************

 Variable memory set to  100000000 words,  buffer space   230000 words

 SETTING BASIS          =    AVTZ
 SETTING GEOMTYPE       =    XYZ

Geometry recognized as XYZ



 Recomputing integrals since basis changed


 Using spherical harmonics

 Library entry O      S aug-cc-pVTZ          selected for orbital group  1
 Library entry O      P aug-cc-pVTZ          selected for orbital group  1
 Library entry O      D aug-cc-pVTZ          selected for orbital group  1
 Library entry O      F aug-cc-pVTZ          selected for orbital group  1
 Library entry H      S aug-cc-pVTZ          selected for orbital group  2
 Library entry H      P aug-cc-pVTZ          selected for orbital group  2
 Library entry H      D aug-cc-pVTZ          selected for orbital group  2
 Library entry C      S aug-cc-pVTZ          selected for orbital group  3
 Library entry C      P aug-cc-pVTZ          selected for orbital group  3
 Library entry C      D aug-cc-pVTZ          selected for orbital group  3
 Library entry C      F aug-cc-pVTZ          selected for orbital group  3

1PROGRAM * SEWARD (Integral evaluation for generally contracted gaussian basis sets)     Author: Roland Lindh, 1990

 Geometry written to block  1 of record 700


 Point group  Cs  



 ATOMIC COORDINATES

 NR  ATOM    CHARGE       X              Y              Z

   1  O       8.00    0.051927784    2.192104989    0.000000000
   2  O       8.00   -0.017697285   -2.199571297    0.000000000
   3  O       8.00   12.425544030   -0.054884714    0.000000000
   4  H       1.00   13.160827019    0.779002294    1.431399514
   5  H       1.00   13.160827019    0.779002294   -1.431399514
   6  C       6.00    0.047934793   -0.005899725    0.000000000

 Bond lengths in Bohr (Angstrom)

 1-6  2.198008341  2-6  2.194653170  3-4  1.812432947  3-5  1.812432947
     (1.163135919)     (1.161360439)     (0.959098208)     (0.959098208)

 Bond angles

  1-6-2  178.39037465   4-3-5  104.32746287

 NUCLEAR CHARGE:                   32
 NUMBER OF PRIMITIVE AOS:         322
 NUMBER OF SYMMETRY AOS:          282
 NUMBER OF CONTRACTIONS:          230   ( 143A'  +  87A"  )
 NUMBER OF CORE ORBITALS:           4   (   4A'  +   0A"  )
 NUMBER OF VALENCE ORBITALS:       18   (  13A'  +   5A"  )


 NUCLEAR REPULSION ENERGY   84.78550697


 Eigenvalues of metric

         1 0.349E-03 0.379E-03 0.393E-03 0.900E-03 0.922E-03 0.175E-02 0.180E-02 0.317E-02
         2 0.395E-03 0.166E-02 0.318E-02 0.348E-02 0.508E-02 0.622E-02 0.100E-01 0.124E-01


 Contracted 2-electron integrals neglected if value below      1.0D-11
 AO integral compression algorithm  1   Integral accuracy      1.0D-11

     370.672 MB (compressed) written to integral file ( 23.6%)

     Node minimum: 116.130 MB, node maximum: 130.286 MB


 NUMBER OF SORTED TWO-ELECTRON INTEGRALS:   59530350.     BUFFER LENGTH:  32768
 NUMBER OF SEGMENTS:   4  SEGMENT LENGTH:   15999984      RECORD LENGTH: 524288

 Memory used in sort:      16.56 MW

 SORT1 READ   196426087. AND WROTE    26069948. INTEGRALS IN     78 RECORDS. CPU TIME:     2.19 SEC, REAL TIME:     2.47 SEC
 SORT2 READ    78622953. AND WROTE   178576926. INTEGRALS IN   1422 RECORDS. CPU TIME:     0.76 SEC, REAL TIME:     1.00 SEC

 Node minimum:    59520934.  Node maximum:    59530350. integrals

 OPERATOR DM      FOR CENTER  0  COORDINATES:    0.000000    0.000000    0.000000


 **********************************************************************************************************************************
 DATASETS  * FILE   NREC   LENGTH (MB)   RECORD NAMES
              1      18        3.71       500      610      700      900      950      970     1000      129      960     1100   
                                          VAR    BASINP    GEOM    SYMINP    ZMAT    AOBASIS   BASIS     P2S    ABASIS      S 
                                         1400     1410     1200     1210     1080     1600     1650     1700   
                                           T        V       H0       H01     AOSYM     SMH    MOLCAS    OPER   

 PROGRAMS   *        TOTAL       INT
 CPU TIMES  *         5.56      5.49
 REAL TIME  *         6.30 SEC
 DISK USED  *         1.31 GB      
 GA USED    *         0.00 MB       (max)       0.00 MB       (current)
 **********************************************************************************************************************************

1PROGRAM * RHF-SCF (CLOSED SHELL)       Authors: W. Meyer, H.-J. Werner


 NUMBER OF ELECTRONS:      16+   16-
 CONVERGENCE THRESHOLDS:    1.00E-05 (Density)    1.00E-07 (Energy)
 MAX. NUMBER OF ITERATIONS:       60
 INTERPOLATION TYPE:            DIIS
 INTERPOLATION STEPS:              2 (START)      1 (STEP)
 LEVEL SHIFTS:                  0.00 (CLOSED)  0.00 (OPEN) 



 Orbital guess generated from atomic densities. Full valence occupancy:   17   5

 Molecular orbital dump at record        2100.2

 Initial alpha occupancy:  13   3
 Initial beta  occupancy:  13   3
 Wave function symmetry:    1

 ITERATION    DDIFF          GRAD             ENERGY        2-EL.EN.            DIPOLE MOMENTS         DIIS
    1      0.000D+00      0.000D+00      -263.66041107    365.168619    0.79964    0.84411    0.00000    0
    2      0.000D+00      0.642D-02      -263.72569470    360.588190    0.46558    0.49252    0.00000    1
    3      0.103D-01      0.436D-02      -263.76898602    363.149318    0.54998    0.57695    0.00000    2
    4      0.424D-02      0.410D-03      -263.76948131    362.937073    0.55190    0.58006    0.00000    3
    5      0.493D-03      0.119D-03      -263.76953939    362.939339    0.54839    0.57618    0.00000    4
    6      0.185D-03      0.482D-04      -263.76954658    362.953797    0.54883    0.57659    0.00000    5
    7      0.614D-04      0.118D-04      -263.76954731    362.945433    0.54854    0.57634    0.00000    6
    8      0.201D-04      0.261D-05      -263.76954736    362.946727    0.54855    0.57627    0.00000    7
    9      0.547D-05      0.937D-06      -263.76954736    362.946540    0.54853    0.57631    0.00000    0

 Final occupancy:  13   3

 !RHF STATE 1.1 Energy               -263.769547364909
 Nuclear energy                        84.78550697
 One-electron energy                 -530.02832442
 Two-electron energy                  181.47327008
 Virial quotient                       -1.00183390
 !RHF STATE 1.1 Dipole moment           0.54852731     0.57631151     0.00000000
 Dipole moment /Debye                   1.39412605     1.46474180     0.00000000

 Orbital energies:

         1.1          2.1          3.1          4.1          5.1          6.1          7.1          8.1          9.1         10.1
    -20.649986   -20.649652   -20.568713   -11.458665    -1.527441    -1.474346    -1.353890    -0.797757    -0.739998    -0.711452

        11.1         12.1         13.1         14.1         15.1
     -0.586124    -0.541153    -0.511398     0.027956     0.052448

         1.2          2.2          3.2          4.2          5.2
     -0.717577    -0.711534    -0.541207     0.046550     0.077491


 **********************************************************************************************************************************
 DATASETS  * FILE   NREC   LENGTH (MB)   RECORD NAMES
              1      18        3.72       500      610      700      900      950      970     1000      129      960     1100   
                                          VAR    BASINP    GEOM    SYMINP    ZMAT    AOBASIS   BASIS     P2S    ABASIS      S 
                                         1400     1410     1200     1210     1080     1600     1650     1700   
                                           T        V       H0       H01     AOSYM     SMH    MOLCAS    OPER   

              2       3        0.94       700     1000     2100   
                                         GEOM     BASIS     RHF  

 PROGRAMS   *        TOTAL        HF       INT
 CPU TIMES  *         9.19      3.63      5.49
 REAL TIME  *        10.10 SEC
 DISK USED  *         1.33 GB      
 SF USED    *         0.11 MB      
 GA USED    *         0.00 MB       (max)       0.00 MB       (current)
 **********************************************************************************************************************************


1PROGRAM * CCSD (Closed-shell coupled cluster)     Authors: C. Hampel, H.-J. Werner, 1991, M. Deegan, P.J. Knowles, 1992

                                  CCSD-F12 implementation by  H.-J. Werner, 2007

                   Density fitting integral evaluation by F.R. Manby, 2003,2007, G. Knizia, 2010

 Basis set CC-PVTZ/JKFIT generated.      Number of basis functions:   376 
 Basis set AUG-CC-PVTZ/MP2FIT generated. Number of basis functions:   516 

 Convergence thresholds:  THRVAR = 1.00D-08  THRDEN = 1.00D-06

 CCSD(T)     terms to be evaluated (factor= 1.000)


 Number of core orbitals:           4 (   4   0 )
 Number of closed-shell orbitals:  12 (   9   3 )
 Number of external orbitals:     214 ( 130  84 )

 Molecular orbitals read from record     2100.2  Type=RHF/CANONICAL (state 1.1)

 MP2-F12 correlation treatment (H.-J. Werner, 2006)
 --------------------------------------------------

 Using MP2-F12 with ansatz 3C(FIX)

 Using projected zeroth-order Hamiltonian (+Z)

 FOCKRIB=T FOCKRIC=T FOCKRIP=T CABSP=T CABSA=T CABSK=T CABSF=T GBC=F EBC=F DMAT=T NOFIK=T NOPAO=1 SOLVE=-1  USEPAO=0
 EXCH_A= T EXCH_B= F EXCH_C= F EXCH_P= F
 
 Geminal basis:    OPTFULL  GEM_TYPE=SLATER  BETA=1.0  NGEM=6

 Optimizing Gaussian exponents for each gem_beta

 Geminal optimization for beta= 1.0000
 Weight function:   m=0, omega= 1.4646

 Augmented Hessian optimization of geminal fit. Trust ratio= 0.40000
 Convergence reached after   2 iterations. Final gradient= 8.24D-16, Step= 4.32D-06, Delta= 1.28D-09
 
 Alpha:                 0.19532     0.81920     2.85917     9.50073    35.69989   197.79328
 Coeff:                 0.27070     0.30552     0.18297     0.10986     0.06810     0.04224
 

 Symmetry turned off. Reference energy:       -263.769547364910

 All pairs explicitly correlated. Number of r12-pairs:           78
 
 AO(A)-basis ORBITAL           loaded. Number of functions:     230
 RI(R)-basis CC-PVTZ/JKFIT     loaded. Number of functions:     376
 DF-basis CC-PVTZ/JKFIT        loaded. Number of functions:     376

 Screening thresholds:   THRAO=  1.00D-10  THRMO=  1.00D-09  THRPROD=  1.00D-09
                         THRSW=  1.00D-05  THROV=  1.00D-12  THRF12=   1.00D-08

 CPU time for Fock operators                      0.96 sec
 
 Construction of ABS:
 Smallest eigenvalue of S          2.57E-04  (threshold= 1.00E-08)
 Ratio eigmin/eigmax               1.83E-06  (threshold= 1.00E-09)
 Smallest eigenvalue of S kept     2.57E-04  (threshold= 2.57E-04, 0 functions deleted, 376 kept)
 
 Construction of CABS:
 Smallest eigenvalue of S          2.30E-08  (threshold= 1.00E-08)
 Ratio eigmin/eigmax               2.30E-08  (threshold= 1.00E-09)
 Smallest eigenvalue of S kept     2.30E-08  (threshold= 2.30E-08, 0 functions deleted, 376 kept)
 
 CPU time for CABS singles                        0.17 sec

 CABS-singles contribution of  -0.01592243 patched into reference energy.
 New reference energy        -263.78546979
 
 AO(A)-basis ORBITAL           loaded. Number of functions:     230
 RI(R)-basis CC-PVTZ/JKFIT     loaded. Number of functions:     376
 DF-basis AUG-CC-PVTZ/MP2FIT   loaded. Number of functions:     516

 Screening thresholds:   THRAO=  1.00D-10  THRMO=  1.00D-09  THRPROD=  1.00D-09
                         THRSW=  1.00D-05  THROV=  1.00D-12  THRF12=   1.00D-08

 CPU time for 3-index integral evaluation         2.12 sec
 CPU time for first  half transformation          0.28 sec ( 9060.7 MFLOP/sec)
 CPU time for second half transformation          0.01 sec (10084.2 MFLOP/sec)
 CPU time for sorting                             0.16 sec
 CPU time for fitting                             0.05 sec (27861.0 MFLOP/sec)
 CPU time for tilde quantities                    0.06 sec (30814.7 MFLOP/sec)
 CPU time for assembly                            0.85 sec (27242.3 MFLOP/sec)
 CPU time for tranop_f12                          0.93 sec (32207.6 MFLOP/sec)
 CPU time for f12 integrals (total)               6.67 sec
 F12-matrices built in  3 passes.
 F12-matrices built in  3 passes.
 F12-matrices built in  3 passes.
 F12-matrices built in  3 passes.
 FC-matrix built in  3 passes.
 CPU time for f12 matrices (total)                0.54 sec

 Diagonal F12 approximation with fixed coefficients:  TSING= 0.500,  TTRIP= 0.250 (scaled by -1/beta)

 DF-MP2-F12 energy corrections:
 ------------------------------
 Approx.                                    Singlet             Triplet             Total
 DF-MP2-F12/3*C(DX,FIX)                -0.097441181831     -0.016931876077     -0.114373057908
 DF-MP2-F12/3*C(FIX)                   -0.079857705622     -0.013394305746     -0.093252011369
 DF-MP2-F12/3C(FIX)                    -0.080219256417     -0.013417814857     -0.093637071274

 DF-MP2-F12 correlation energies:
 --------------------------------
 Approx.                                    Singlet             Triplet             Ecorr            Total Energy
 DF-MP2                                -0.537778414224     -0.343107707847     -0.880886122072   -264.666355914672
 DF-MP2-F12/3*C(DX,FIX)                -0.635219596055     -0.360039583924     -0.995259179980   -264.780728972580
 DF-MP2-F12/3*C(FIX)                   -0.617636119847     -0.356502013594     -0.974138133440   -264.759607926040
 DF-MP2-F12/3C(FIX)                    -0.617997670641     -0.356525522704     -0.974523193346   -264.759992985946

 SCS-DF-MP2 energies (F_SING= 1.20000  F_TRIP= 0.62222  F_PARALLEL= 0.33333):
 ----------------------------------------------------------------------------
 SCS-DF-MP2                            -0.858823337507   -264.644293130107
 SCS-DF-MP2-F12/3*C(DX,FIX)            -0.986288145264   -264.771757937864
 SCS-DF-MP2-F12/3*C(FIX)               -0.962986818941   -264.748456611541
 SCS-DF-MP2-F12/3C(FIX)                -0.963435307786   -264.748905100386

 Symmetry restored.
 Symmetry transformation completed.

 Number of N-1 electron functions:              12
 Number of N-2 electron functions:              78
 Number of singly external CSFs:              1422
 Number of doubly external CSFs:           1668984
 Total number of CSFs:                     1670407

 Pair and operator lists are different

 Length of J-op  integral file:             466.33 MB
 Length of K-op  integral file:             525.76 MB
 Length of 3-ext integral record:             0.00 MB

 Memory could be reduced to 76.19 Mwords without degradation in triples

 Integral transformation finished. Total CPU:   4.18 sec, npass=  1  Memory used:  26.50 MW

 Reference energy:                   -263.78546979

 Adding F12 terms to K(Cij), methodcc=6,  factor=1.0

 ITER.      SQ.NORM     CORR.ENERGY   TOTAL ENERGY   ENERGY CHANGE        DEN1      VAR(S)    VAR(P)  DIIS     TIME
   1      1.20219452    -0.86282879  -264.64829858     0.01807374     0.04671626  0.72D-02  0.56D-02  1  1    15.55
   2      1.21651407    -0.85860163  -264.64407142     0.00422716    -0.02015959  0.86D-04  0.59D-03  2  2    18.27
   3      1.22187987    -0.85869840  -264.64416819    -0.00009677    -0.00236642  0.13D-03  0.32D-04  3  3    20.97
   4      1.22468426    -0.85857051  -264.64404030     0.00012789    -0.00141237  0.76D-05  0.41D-05  4  4    23.67
   5      1.22571504    -0.85853284  -264.64400264     0.00003767    -0.00036660  0.56D-06  0.29D-06  5  5    26.39
   6      1.22587733    -0.85850598  -264.64397577     0.00002687    -0.00000806  0.40D-07  0.24D-07  6  6    29.13
   7      1.22590673    -0.85850355  -264.64397334     0.00000243    -0.00000622  0.26D-08  0.40D-08  6  4    31.84
   8      1.22590705    -0.85850306  -264.64397285     0.00000049     0.00000194  0.39D-09  0.27D-09  6  1    34.60
   9      1.22590767    -0.85850313  -264.64397292    -0.00000007     0.00000056  0.26D-10  0.21D-10  6  2    37.32

 Norm of t1 vector:      0.10599613      S-energy:    -0.00000001      T1 diagnostic:  0.01529922
                                                                       D1 diagnostic:  0.04496273

 Adding energy correction from Wij-K(Fij), methodcc=6  factor=1.0
 
  CCSD correlation energy              -0.858503126491
  MP2-F12 correction (uncoupled)       -0.092478905915
  C*T doubles correction               -0.001476207876
  f12b correction                       0.015406610508


 Total CPU time for triples:     72.02 sec


 RESULTS
 =======

  Reference energy                   -263.769547364909
  F12 singles correction               -0.015922427690

 F12 singles corrections added to reference energy

  New reference energy               -263.785469792600

  F12a singlet correction              -0.080418881942
  F12a triplet correction              -0.013536231850
  F12a total correction                -0.093955113792

 F12a corrections for ansatz F12/3C(FIX) added to CCSD energy
 
  CCSD-F12a singlet pair energy        -0.641940839264
  CCSD-F12a triplet pair energy        -0.310517386545
  CCSD-F12a correlation energy         -0.952458240283

  Triples (T) contribution             -0.037649583666
  Total correlation energy             -0.990107823948

  CCSD-F12a total energy             -264.737928032883
  CCSD[T]-F12a energy                -264.778122318020
  CCSD-T-F12a energy                 -264.774639629756
 !CCSD(T)-F12a total energy          -264.775577616548

 F12b corrections for ansatz F12/3C(FIX) added to CCSD(T)-F12a energy

  CCSD-F12b singlet pair energy        -0.627757447324
  CCSD-F12b triplet pair energy        -0.309294167977
  CCSD-F12b correlation energy         -0.937051629775

  Triples (T) contribution             -0.037649583666
  Total correlation energy             -0.974701213440

  CCSD-F12b total energy             -264.722521422375
  CCSD[T]-F12b energy                -264.762715707512
  CCSD-T-F12b energy                 -264.759233019248
 !CCSD(T)-F12b total energy          -264.760171006040

 Timing summary (sec):

 STEP                 CPU(USER)    SYS     CPU(TOT)    WALL
 Transformation          4.22      0.56      4.78      4.78
 CCSD iterations        24.30      1.48     25.78     26.21
 Triples                72.02      1.50     73.52     73.51
 MP2-F12                 8.82      1.18     10.00      9.99
 F12b energy             1.71      0.03      1.74      1.73

 Program statistics:

 Available memory in ccsd:                99998934
 Min. memory needed in ccsd:               4419579
 Max. memory used in ccsd:                 5922321
 Max. memory used in cckext:               6231049 (10 integral passes)



 **********************************************************************************************************************************
 DATASETS  * FILE   NREC   LENGTH (MB)   RECORD NAMES
              1      20      268.24       500      610      700      900      950      970     1000      129      960     1100   
                                          VAR    BASINP    GEOM    SYMINP    ZMAT    AOBASIS   BASIS     P2S    ABASIS      S 
                                         1400     1410     1200     1210     1080     1600     1650     1700      960(1)  1380   
                                           T        V       H0       H01     AOSYM     SMH    MOLCAS    OPER    ABASIS    JKOP   

              2       5        1.51       700     1000     2100     7360     7350   
                                         GEOM     BASIS     RHF    F12ABS    EF12   

 PROGRAMS   *        TOTAL   CCSD(T)        HF       INT
 CPU TIMES  *       120.33    111.14      3.63      5.49
 REAL TIME  *       126.60 SEC
 DISK USED  *         1.77 GB      
 SF USED    *         1.52 GB      
 GA USED    *         2.40 MB       (max)       0.00 MB       (current)
 **********************************************************************************************************************************

     CCSD(T)-F12        HF-SCF  
   -264.76017101   -263.76954736
 **********************************************************************************************************************************
 Variable memory released
