
 Primary working directories    : /scratch/kee
 Secondary working directories  : /scratch/kee
 Wavefunction directory         : /home/kee/wfu/
 Main file repository           : /scratch/kee/

 ARCHNAME  : Linux/x86_64
 FC        : /opt/intel/composer_xe_2015.0.090/bin/intel64/ifort
 FCVERSION : 15.0.0
 BLASLIB   : -L/opt/intel/mkl/lib/intel64 -lmkl_intel_ilp64 -lmkl_sequential -lmkl_core
 id        : emory

 Nodes     nprocs
 node24       3
 Number of processes for MPI-2 version of Molpro:   nprocs(total)=    4   nprocs(compute)=    3   nprocs(helper)=    1
 ga_uses_ma=false, calling ma_init with nominal heap.
 GA-space will be limited to   8.0 MW (determined by -G option)

 Using customized tuning parameters: mindgm=7; mindgv=32; mindgc=1; mindgr=1; noblas=0; mincuda=1000; minvec=7
 default implementation of scratch files=sf  

 ***,co2h2o
 memory,100,m
 basis avtz
 geomtype = xyz
 geometry = {
 6
       0.00000000
 O     0.00351000    1.16210700    0.00000000
 O     0.00351000   -1.16210700    0.00000000
 O     7.31968000    0.00000000    0.00000000
 H     7.90589800    0.00000000    0.75853100
 H     7.90589800    0.00000000   -0.75853100
 C     0.01968000    0.00000000    0.00000000
 }
 hf
 ccsd(t)-f12
 ---

 Variables initialized (665), CPU time= 0.01 sec
 Commands  initialized (462), CPU time= 0.01 sec, 486 directives.
 Default parameters read. Elapsed time= 0.03 sec

 Checking input...
 Passed
1


                                         ***  PROGRAM SYSTEM MOLPRO  ***
                         Copyright, University College Cardiff Consultants Limited, 2008

                                    Version 2010.1 linked 9 Dec 2014 15:06:28 


 **********************************************************************************************************************************
 LABEL *   co2h2o                                                                        
 Linux-2.6.32-504.el6.x86_64/node24(x86_64) 64 bit mpp version                           DATE: 12-Dec-16          TIME: 14:11:18  
 **********************************************************************************************************************************

 Patch level:      19
 **********************************************************************************************************************************

 Variable memory set to  100000000 words,  buffer space   230000 words

 SETTING BASIS          =    AVTZ
 SETTING GEOMTYPE       =    XYZ

Geometry recognized as XYZ



 Recomputing integrals since basis changed


 Using spherical harmonics

 Library entry O      S aug-cc-pVTZ          selected for orbital group  1
 Library entry O      P aug-cc-pVTZ          selected for orbital group  1
 Library entry O      D aug-cc-pVTZ          selected for orbital group  1
 Library entry O      F aug-cc-pVTZ          selected for orbital group  1
 Library entry H      S aug-cc-pVTZ          selected for orbital group  2
 Library entry H      P aug-cc-pVTZ          selected for orbital group  2
 Library entry H      D aug-cc-pVTZ          selected for orbital group  2
 Library entry C      S aug-cc-pVTZ          selected for orbital group  3
 Library entry C      P aug-cc-pVTZ          selected for orbital group  3
 Library entry C      D aug-cc-pVTZ          selected for orbital group  3
 Library entry C      F aug-cc-pVTZ          selected for orbital group  3

1PROGRAM * SEWARD (Integral evaluation for generally contracted gaussian basis sets)     Author: Roland Lindh, 1990

 Geometry written to block  1 of record 700


 Point group  C2v 



 ATOMIC COORDINATES

 NR  ATOM    CHARGE       X              Y              Z

   1  O       8.00    0.006632939    2.196063965    0.000000000
   2  O       8.00    0.006632939   -2.196063965    0.000000000
   3  O       8.00   13.832190570    0.000000000    0.000000000
   4  H       1.00   14.939982043    0.000000000    1.433415852
   5  H       1.00   14.939982043    0.000000000   -1.433415852
   6  C       6.00    0.037189810    0.000000000    0.000000000

 Bond lengths in Bohr (Angstrom)

 1-6  2.196276545  2-6  2.196276545  3-4  1.811596797  3-5  1.811596797
     (1.162219492)     (1.162219492)     (0.958655737)     (0.958655737)

 Bond angles

  1-6-2  178.40563223   4-3-5  104.60391356

 NUCLEAR CHARGE:                   32
 NUMBER OF PRIMITIVE AOS:         322
 NUMBER OF SYMMETRY AOS:          282
 NUMBER OF CONTRACTIONS:          230   (  84A1  +  59B1  +  54B2  +  33A2  )
 NUMBER OF CORE ORBITALS:           4   (   3A1  +   1B1  +   0B2  +   0A2  )
 NUMBER OF VALENCE ORBITALS:       18   (   8A1  +   5B1  +   4B2  +   1A2  )


 NUCLEAR REPULSION ENERGY   82.99785602


 Eigenvalues of metric

         1 0.373E-03 0.405E-03 0.901E-03 0.178E-02 0.317E-02 0.321E-02 0.404E-02 0.508E-02
         2 0.349E-03 0.922E-03 0.175E-02 0.348E-02 0.594E-02 0.744E-02 0.204E-01 0.215E-01
         3 0.394E-03 0.166E-02 0.318E-02 0.509E-02 0.622E-02 0.100E-01 0.136E-01 0.156E-01
         4 0.348E-02 0.124E-01 0.296E-01 0.363E-01 0.561E-01 0.679E-01 0.110E+00 0.139E+00


 Contracted 2-electron integrals neglected if value below      1.0D-11
 AO integral compression algorithm  1   Integral accuracy      1.0D-11

     181.666 MB (compressed) written to integral file ( 23.6%)

     Node minimum: 53.215 MB, node maximum: 71.303 MB


 NUMBER OF SORTED TWO-ELECTRON INTEGRALS:   29979201.     BUFFER LENGTH:  32768
 NUMBER OF SEGMENTS:   2  SEGMENT LENGTH:   15996954      RECORD LENGTH: 524288

 Memory used in sort:      16.55 MW

 SORT1 READ    96159866. AND WROTE    11387832. INTEGRALS IN     34 RECORDS. CPU TIME:     1.73 SEC, REAL TIME:     1.90 SEC
 SORT2 READ    34182066. AND WROTE    89930217. INTEGRALS IN    609 RECORDS. CPU TIME:     0.45 SEC, REAL TIME:     0.60 SEC

 Node minimum:    29974277.  Node maximum:    29979201. integrals

 OPERATOR DM      FOR CENTER  0  COORDINATES:    0.000000    0.000000    0.000000


 **********************************************************************************************************************************
 DATASETS  * FILE   NREC   LENGTH (MB)   RECORD NAMES
              1      18        3.23       500      610      700      900      950      970     1000      129      960     1100   
                                          VAR    BASINP    GEOM    SYMINP    ZMAT    AOBASIS   BASIS     P2S    ABASIS      S 
                                         1400     1410     1200     1210     1080     1600     1650     1700   
                                           T        V       H0       H01     AOSYM     SMH    MOLCAS    OPER   

 PROGRAMS   *        TOTAL       INT
 CPU TIMES  *         3.85      3.78
 REAL TIME  *         4.27 SEC
 DISK USED  *       591.03 MB      
 GA USED    *         0.00 MB       (max)       0.00 MB       (current)
 **********************************************************************************************************************************

1PROGRAM * RHF-SCF (CLOSED SHELL)       Authors: W. Meyer, H.-J. Werner


 NUMBER OF ELECTRONS:      16+   16-
 CONVERGENCE THRESHOLDS:    1.00E-05 (Density)    1.00E-07 (Energy)
 MAX. NUMBER OF ITERATIONS:       60
 INTERPOLATION TYPE:            DIIS
 INTERPOLATION STEPS:              2 (START)      1 (STEP)
 LEVEL SHIFTS:                  0.00 (CLOSED)  0.00 (OPEN) 



 Orbital guess generated from atomic densities. Full valence occupancy:   11   6   4   1

 Molecular orbital dump at record        2100.2

 Initial alpha occupancy:   8   5   2   1
 Initial beta  occupancy:   8   5   2   1
 Wave function symmetry:    1

 ITERATION    DDIFF          GRAD             ENERGY        2-EL.EN.            DIPOLE MOMENTS         DIIS
    1      0.000D+00      0.000D+00      -263.66045532    361.626558    1.18061    0.00000    0.00000    0
    2      0.000D+00      0.888D-02      -263.72572576    357.024444    0.69030    0.00000    0.00000    1
    3      0.143D-01      0.603D-02      -263.76900556    359.590713    0.81160    0.00000    0.00000    2
    4      0.587D-02      0.568D-03      -263.76950072    359.378868    0.81509    0.00000    0.00000    3
    5      0.695D-03      0.165D-03      -263.76955876    359.380869    0.80968    0.00000    0.00000    4
    6      0.258D-03      0.666D-04      -263.76956594    359.395374    0.81039    0.00000    0.00000    5
    7      0.856D-04      0.163D-04      -263.76956667    359.387011    0.80994    0.00000    0.00000    6
    8      0.281D-04      0.359D-05      -263.76956672    359.388314    0.80996    0.00000    0.00000    7
    9      0.768D-05      0.121D-05      -263.76956672    359.388120    0.80992    0.00000    0.00000    0

 Final occupancy:   8   5   2   1

 !RHF STATE 1.1 Energy               -263.769566724461
 Nuclear energy                        82.99785602
 One-electron energy                 -526.46148298
 Two-electron energy                  179.69406023
 Virial quotient                       -1.00182780
 !RHF STATE 1.1 Dipole moment           0.80992476     0.00000000     0.00000000
 Dipole moment /Debye                   2.05848857     0.00000000     0.00000000

 Orbital energies:

         1.1          2.1          3.1          4.1          5.1          6.1          7.1          8.1          9.1         10.1
    -20.649541   -20.568200   -11.458391    -1.527199    -1.353606    -0.797491    -0.711227    -0.585362     0.028258     0.051553

         1.2          2.2          3.2          4.2          5.2          6.2          7.2
    -20.649586    -1.474122    -0.739738    -0.540903    -0.511029     0.081930     0.153786

         1.3          2.3          3.3          4.3
     -0.718046    -0.711291     0.046906     0.076865

         1.4          2.4          3.4
     -0.540949     0.166964     0.264639


 **********************************************************************************************************************************
 DATASETS  * FILE   NREC   LENGTH (MB)   RECORD NAMES
              1      18        3.25       500      610      700      900      950      970     1000      129      960     1100   
                                          VAR    BASINP    GEOM    SYMINP    ZMAT    AOBASIS   BASIS     P2S    ABASIS      S 
                                         1400     1410     1200     1210     1080     1600     1650     1700   
                                           T        V       H0       H01     AOSYM     SMH    MOLCAS    OPER   

              2       3        0.67       700     1000     2100   
                                         GEOM     BASIS     RHF  

 PROGRAMS   *        TOTAL        HF       INT
 CPU TIMES  *         5.01      1.15      3.78
 REAL TIME  *         5.50 SEC
 DISK USED  *       608.42 MB      
 SF USED    *         0.06 MB      
 GA USED    *         0.00 MB       (max)       0.00 MB       (current)
 **********************************************************************************************************************************


1PROGRAM * CCSD (Closed-shell coupled cluster)     Authors: C. Hampel, H.-J. Werner, 1991, M. Deegan, P.J. Knowles, 1992

                                  CCSD-F12 implementation by  H.-J. Werner, 2007

                   Density fitting integral evaluation by F.R. Manby, 2003,2007, G. Knizia, 2010

 Basis set CC-PVTZ/JKFIT generated.      Number of basis functions:   376 
 Basis set AUG-CC-PVTZ/MP2FIT generated. Number of basis functions:   516 

 Convergence thresholds:  THRVAR = 1.00D-08  THRDEN = 1.00D-06

 CCSD(T)     terms to be evaluated (factor= 1.000)


 Number of core orbitals:           4 (   3   1   0   0 )
 Number of closed-shell orbitals:  12 (   5   4   2   1 )
 Number of external orbitals:     214 (  76  54  52  32 )

 Molecular orbitals read from record     2100.2  Type=RHF/CANONICAL (state 1.1)

 MP2-F12 correlation treatment (H.-J. Werner, 2006)
 --------------------------------------------------

 Using MP2-F12 with ansatz 3C(FIX)

 Using projected zeroth-order Hamiltonian (+Z)

 FOCKRIB=T FOCKRIC=T FOCKRIP=T CABSP=T CABSA=T CABSK=T CABSF=T GBC=F EBC=F DMAT=T NOFIK=T NOPAO=1 SOLVE=-1  USEPAO=0
 EXCH_A= T EXCH_B= F EXCH_C= F EXCH_P= F
 
 Geminal basis:    OPTFULL  GEM_TYPE=SLATER  BETA=1.0  NGEM=6

 Optimizing Gaussian exponents for each gem_beta

 Geminal optimization for beta= 1.0000
 Weight function:   m=0, omega= 1.4646

 Augmented Hessian optimization of geminal fit. Trust ratio= 0.40000
 Convergence reached after   2 iterations. Final gradient= 8.24D-16, Step= 4.32D-06, Delta= 1.28D-09
 
 Alpha:                 0.19532     0.81920     2.85917     9.50073    35.69989   197.79328
 Coeff:                 0.27070     0.30552     0.18297     0.10986     0.06810     0.04224
 

 Symmetry turned off. Reference energy:       -263.769566724461

 All pairs explicitly correlated. Number of r12-pairs:           78
 
 AO(A)-basis ORBITAL           loaded. Number of functions:     230
 RI(R)-basis CC-PVTZ/JKFIT     loaded. Number of functions:     376
 DF-basis CC-PVTZ/JKFIT        loaded. Number of functions:     376

 Screening thresholds:   THRAO=  1.00D-10  THRMO=  1.00D-09  THRPROD=  1.00D-09
                         THRSW=  1.00D-05  THROV=  1.00D-12  THRF12=   1.00D-08

 CPU time for Fock operators                      0.98 sec
 
 Construction of ABS:
 Smallest eigenvalue of S          2.57E-04  (threshold= 1.00E-08)
 Ratio eigmin/eigmax               1.83E-06  (threshold= 1.00E-09)
 Smallest eigenvalue of S kept     2.57E-04  (threshold= 2.57E-04, 0 functions deleted, 376 kept)
 
 Construction of CABS:
 Smallest eigenvalue of S          2.30E-08  (threshold= 1.00E-08)
 Ratio eigmin/eigmax               2.30E-08  (threshold= 1.00E-09)
 Smallest eigenvalue of S kept     2.30E-08  (threshold= 2.30E-08, 0 functions deleted, 376 kept)
 
 CPU time for CABS singles                        0.18 sec

 CABS-singles contribution of  -0.01592344 patched into reference energy.
 New reference energy        -263.78549016
 
 AO(A)-basis ORBITAL           loaded. Number of functions:     230
 RI(R)-basis CC-PVTZ/JKFIT     loaded. Number of functions:     376
 DF-basis AUG-CC-PVTZ/MP2FIT   loaded. Number of functions:     516

 Screening thresholds:   THRAO=  1.00D-10  THRMO=  1.00D-09  THRPROD=  1.00D-09
                         THRSW=  1.00D-05  THROV=  1.00D-12  THRF12=   1.00D-08

 CPU time for 3-index integral evaluation         2.31 sec
 CPU time for first  half transformation          0.34 sec ( 6534.1 MFLOP/sec)
 CPU time for second half transformation          0.02 sec ( 4332.8 MFLOP/sec)
 CPU time for sorting                             0.14 sec
 CPU time for fitting                             0.05 sec (27690.6 MFLOP/sec)
 CPU time for tilde quantities                    0.10 sec (16316.2 MFLOP/sec)
 CPU time for assembly                            1.01 sec (20722.9 MFLOP/sec)
 CPU time for tranop_f12                          1.48 sec (17415.8 MFLOP/sec)
 CPU time for f12 integrals (total)               8.76 sec
 F12-matrices built in  3 passes.
 F12-matrices built in  3 passes.
 F12-matrices built in  3 passes.
 F12-matrices built in  3 passes.
 FC-matrix built in  3 passes.
 CPU time for f12 matrices (total)                0.64 sec

 Diagonal F12 approximation with fixed coefficients:  TSING= 0.500,  TTRIP= 0.250 (scaled by -1/beta)

 DF-MP2-F12 energy corrections:
 ------------------------------
 Approx.                                    Singlet             Triplet             Total
 DF-MP2-F12/3*C(DX,FIX)                -0.097448547531     -0.016933382960     -0.114381930491
 DF-MP2-F12/3*C(FIX)                   -0.079864201094     -0.013395506194     -0.093259707288
 DF-MP2-F12/3C(FIX)                    -0.080225133360     -0.013418834384     -0.093643967743

 DF-MP2-F12 correlation energies:
 --------------------------------
 Approx.                                    Singlet             Triplet             Ecorr            Total Energy
 DF-MP2                                -0.537737557068     -0.343079591300     -0.880817148368   -264.666307312926
 DF-MP2-F12/3*C(DX,FIX)                -0.635186104599     -0.360012974260     -0.995199078859   -264.780689243417
 DF-MP2-F12/3*C(FIX)                   -0.617601758162     -0.356475097494     -0.974076855656   -264.759567020214
 DF-MP2-F12/3C(FIX)                    -0.617962690428     -0.356498425684     -0.974461116111   -264.759951280670

 SCS-DF-MP2 energies (F_SING= 1.20000  F_TRIP= 0.62222  F_PARALLEL= 0.33333):
 ----------------------------------------------------------------------------
 SCS-DF-MP2                            -0.858756814179   -264.644246978737
 SCS-DF-MP2-F12/3*C(DX,FIX)            -0.986231398392   -264.771721562950
 SCS-DF-MP2-F12/3*C(FIX)               -0.962928837124   -264.748419001682
 SCS-DF-MP2-F12/3C(FIX)                -0.963376471161   -264.748866635719

 Symmetry restored.
 Symmetry transformation completed.

 Number of N-1 electron functions:              12
 Number of N-2 electron functions:              78
 Number of singly external CSFs:               732
 Number of doubly external CSFs:            836016
 Total number of CSFs:                      836749

 Pair and operator lists are different

 Length of J-op  integral file:             462.26 MB
 Length of K-op  integral file:             502.03 MB
 Length of 3-ext integral record:             0.00 MB

 Memory could be reduced to 38.69 Mwords without degradation in triples

 Integral transformation finished. Total CPU:   2.29 sec, npass=  1  Memory used:   6.07 MW

 Reference energy:                   -263.78549016

 Adding F12 terms to K(Cij), methodcc=6,  factor=1.0

 ITER.      SQ.NORM     CORR.ENERGY   TOTAL ENERGY   ENERGY CHANGE        DEN1      VAR(S)    VAR(P)  DIIS     TIME
   1      1.20215349    -0.86276792  -264.64825809     0.01806567     0.04669941  0.72D-02  0.56D-02  1  1    14.74
   2      1.21646692    -0.85854105  -264.64403121     0.00422688    -0.02015361  0.86D-04  0.59D-03  2  2    16.18
   3      1.22182850    -0.85863739  -264.64412756    -0.00009635    -0.00236448  0.13D-03  0.32D-04  3  3    17.61
   4      1.22463096    -0.85850952  -264.64399969     0.00012787    -0.00141157  0.76D-05  0.41D-05  4  4    19.05
   5      1.22566114    -0.85847183  -264.64396199     0.00003769    -0.00036643  0.56D-06  0.29D-06  5  5    20.52
   6      1.22582333    -0.85844497  -264.64393513     0.00002686    -0.00000805  0.40D-07  0.24D-07  6  6    21.99
   7      1.22585268    -0.85844254  -264.64393271     0.00000242    -0.00000622  0.25D-08  0.40D-08  6  4    23.47
   8      1.22585298    -0.85844205  -264.64393222     0.00000049     0.00000195  0.39D-09  0.27D-09  6  1    24.68
   9      1.22585360    -0.85844212  -264.64393228    -0.00000007     0.00000056  0.25D-10  0.21D-10  6  2    25.72

 Norm of t1 vector:      0.10597179      S-energy:    -0.00000003      T1 diagnostic:  0.01529571
                                                                       D1 diagnostic:  0.04495573

 Adding energy correction from Wij-K(Fij), methodcc=6  factor=1.0
 
  CCSD correlation energy              -0.858442119852
  MP2-F12 correction (uncoupled)       -0.092486982357
  C*T doubles correction               -0.001475700543
  f12b correction                       0.015406734030


 Total CPU time for triples:     31.60 sec


 RESULTS
 =======

  Reference energy                   -263.769566724461
  F12 singles correction               -0.015923440097

 F12 singles corrections added to reference energy

  New reference energy               -263.785490164558

  F12a singlet correction              -0.080425253692
  F12a triplet correction              -0.013537429208
  F12a total correction                -0.093962682900

 F12a corrections for ansatz F12/3C(FIX) added to CCSD energy
 
  CCSD-F12a singlet pair energy        -0.641900600096
  CCSD-F12a triplet pair energy        -0.310504175637
  CCSD-F12a correlation energy         -0.952404802753

  Triples (T) contribution             -0.037640972177
  Total correlation energy             -0.990045774930

  CCSD-F12a total energy             -264.737894967311
  CCSD[T]-F12a energy                -264.778079729781
  CCSD-T-F12a energy                 -264.774598317603
 !CCSD(T)-F12a total energy          -264.775535939488

 F12b corrections for ansatz F12/3C(FIX) added to CCSD(T)-F12a energy

  CCSD-F12b singlet pair energy        -0.627717154282
  CCSD-F12b triplet pair energy        -0.309280887421
  CCSD-F12b correlation energy         -0.936998068723

  Triples (T) contribution             -0.037640972177
  Total correlation energy             -0.974639040900

  CCSD-F12b total energy             -264.722488233281
  CCSD[T]-F12b energy                -264.762672995751
  CCSD-T-F12b energy                 -264.759191583574
 !CCSD(T)-F12b total energy          -264.760129205458

 Timing summary (sec):

 STEP                 CPU(USER)    SYS     CPU(TOT)    WALL
 Transformation          2.30      0.27      2.57      2.58
 CCSD iterations        12.33      0.90     13.23     13.74
 Triples                31.60      0.93     32.53     33.06
 MP2-F12                11.10      1.29     12.39     12.56
 F12b energy             0.60      0.02      0.62      0.61

 Program statistics:

 Available memory in ccsd:                99998934
 Min. memory needed in ccsd:               2244783
 Max. memory used in ccsd:                 3005571
 Max. memory used in cckext:               2769663 (10 integral passes)



 **********************************************************************************************************************************
 DATASETS  * FILE   NREC   LENGTH (MB)   RECORD NAMES
              1      20      137.19       500      610      700      900      950      970     1000      129      960     1100   
                                          VAR    BASINP    GEOM    SYMINP    ZMAT    AOBASIS   BASIS     P2S    ABASIS      S 
                                         1400     1410     1200     1210     1080     1600     1650     1700      960(1)  1380   
                                           T        V       H0       H01     AOSYM     SMH    MOLCAS    OPER    ABASIS    JKOP   

              2       5        0.97       700     1000     2100     7360     7350   
                                         GEOM     BASIS     RHF    F12ABS    EF12   

 PROGRAMS   *        TOTAL   CCSD(T)        HF       INT
 CPU TIMES  *        62.99     57.99      1.15      3.78
 REAL TIME  *        68.35 SEC
 DISK USED  *       830.09 MB      
 SF USED    *         1.33 GB      
 GA USED    *         2.40 MB       (max)       0.00 MB       (current)
 **********************************************************************************************************************************

     CCSD(T)-F12        HF-SCF  
   -264.76012921   -263.76956672
 **********************************************************************************************************************************
 Variable memory released
