
 Primary working directories    : /scratch/kee
 Secondary working directories  : /scratch/kee
 Wavefunction directory         : /home/kee/wfu/
 Main file repository           : /scratch/kee/

 ARCHNAME  : Linux/x86_64
 FC        : /opt/intel/composer_xe_2015.0.090/bin/intel64/ifort
 FCVERSION : 15.0.0
 BLASLIB   : -L/opt/intel/mkl/lib/intel64 -lmkl_intel_ilp64 -lmkl_sequential -lmkl_core
 id        : emory

 Nodes     nprocs
 node21       3
 Number of processes for MPI-2 version of Molpro:   nprocs(total)=    4   nprocs(compute)=    3   nprocs(helper)=    1
 ga_uses_ma=false, calling ma_init with nominal heap.
 GA-space will be limited to   8.0 MW (determined by -G option)

 Using customized tuning parameters: mindgm=7; mindgv=32; mindgc=1; mindgr=1; noblas=0; mincuda=1000; minvec=7
 default implementation of scratch files=sf  

 ***,co2h2o
 memory,100,m
 basis avtz
 geomtype = xyz
 geometry = {
 6
       0.00000777
 O    10.97257393   -1.10347931    0.00000000
 O    11.76744404    1.08065151   -0.00000000
 O    -6.55643718   -0.00000000    0.00000000
 H    -7.30443226    0.58340495    0.10287003
 H    -5.80401198    0.58686026    0.10347930
 C    11.34356282    0.00000000    0.00000000
 }
 hf
 ccsd(t)-f12
 ---

 Variables initialized (665), CPU time= 0.01 sec
 Commands  initialized (462), CPU time= 0.01 sec, 486 directives.
 Default parameters read. Elapsed time= 0.03 sec

 Checking input...
 Passed
1


                                         ***  PROGRAM SYSTEM MOLPRO  ***
                         Copyright, University College Cardiff Consultants Limited, 2008

                                    Version 2010.1 linked 9 Dec 2014 15:06:28 


 **********************************************************************************************************************************
 LABEL *   co2h2o                                                                        
 Linux-2.6.32-504.el6.x86_64/node21(x86_64) 64 bit mpp version                           DATE: 18-Jan-17          TIME: 21:08:13  
 **********************************************************************************************************************************

 Patch level:      19
 **********************************************************************************************************************************

 Variable memory set to  100000000 words,  buffer space   230000 words

 SETTING BASIS          =    AVTZ
 SETTING GEOMTYPE       =    XYZ

Geometry recognized as XYZ



 Recomputing integrals since basis changed


 Using spherical harmonics

 Library entry O      S aug-cc-pVTZ          selected for orbital group  1
 Library entry O      P aug-cc-pVTZ          selected for orbital group  1
 Library entry O      D aug-cc-pVTZ          selected for orbital group  1
 Library entry O      F aug-cc-pVTZ          selected for orbital group  1
 Library entry H      S aug-cc-pVTZ          selected for orbital group  2
 Library entry H      P aug-cc-pVTZ          selected for orbital group  2
 Library entry H      D aug-cc-pVTZ          selected for orbital group  2
 Library entry C      S aug-cc-pVTZ          selected for orbital group  3
 Library entry C      P aug-cc-pVTZ          selected for orbital group  3
 Library entry C      D aug-cc-pVTZ          selected for orbital group  3
 Library entry C      F aug-cc-pVTZ          selected for orbital group  3

1PROGRAM * SEWARD (Integral evaluation for generally contracted gaussian basis sets)     Author: Roland Lindh, 1990

 Geometry written to block  1 of record 700


 Point group  C1  



 ATOMIC COORDINATES

 NR  ATOM    CHARGE       X              Y              Z

   1  O       8.00   20.735159684   -2.085273688    0.000000000
   2  O       8.00   22.237246502    2.042135397    0.000000000
   3  O       8.00  -12.389870668    0.000000000    0.000000000
   4  H       1.00  -13.803376517    1.102475579    0.194396184
   5  H       1.00  -10.967993106    1.109005169    0.195547537
   6  C       6.00   21.436227084    0.000000000    0.000000000

 Bond lengths in Bohr (Angstrom)

 1-6  2.199968602  2-6  2.193615529  3-4  1.803119814  3-5  1.813799081
     (1.164173245)     (1.160811343)     (0.954169911)     (0.959821135)

 Bond angles

  1-6-2  177.16520951   4-3-5  103.24222917

 NUCLEAR CHARGE:                   32
 NUMBER OF PRIMITIVE AOS:         322
 NUMBER OF SYMMETRY AOS:          282
 NUMBER OF CONTRACTIONS:          230   ( 230A   )
 NUMBER OF CORE ORBITALS:           4   (   4A   )
 NUMBER OF VALENCE ORBITALS:       18   (  18A   )


 NUCLEAR REPULSION ENERGY   73.96338974


 Eigenvalues of metric

         1 0.350E-03 0.385E-03 0.395E-03 0.420E-03 0.904E-03 0.923E-03 0.164E-02 0.176E-02


 Contracted 2-electron integrals neglected if value below      1.0D-11
 AO integral compression algorithm  1   Integral accuracy      1.0D-11

     308.281 MB (compressed) written to integral file ( 30.2%)

     Node minimum: 76.546 MB, node maximum: 132.121 MB


 NUMBER OF SORTED TWO-ELECTRON INTEGRALS:  117629820.     BUFFER LENGTH:  32768
 NUMBER OF SEGMENTS:   8  SEGMENT LENGTH:   15997437      RECORD LENGTH: 524288

 Memory used in sort:      16.55 MW

 SORT1 READ   127845757. AND WROTE    21674375. INTEGRALS IN     66 RECORDS. CPU TIME:     1.39 SEC, REAL TIME:     1.61 SEC
 SORT2 READ    64752677. AND WROTE   352862895. INTEGRALS IN    876 RECORDS. CPU TIME:     0.77 SEC, REAL TIME:     0.95 SEC

 Node minimum:   117612110.  Node maximum:   117629820. integrals

 OPERATOR DM      FOR CENTER  0  COORDINATES:    0.000000    0.000000    0.000000


 **********************************************************************************************************************************
 DATASETS  * FILE   NREC   LENGTH (MB)   RECORD NAMES
              1      18        4.62       500      610      700      900      950      970     1000      129      960     1100   
                                          VAR    BASINP    GEOM    SYMINP    ZMAT    AOBASIS   BASIS     P2S    ABASIS      S 
                                         1400     1410     1200     1210     1080     1600     1650     1700   
                                           T        V       H0       H01     AOSYM     SMH    MOLCAS    OPER   

 PROGRAMS   *        TOTAL       INT
 CPU TIMES  *         4.07      3.99
 REAL TIME  *         4.64 SEC
 DISK USED  *         1.11 GB      
 GA USED    *         0.00 MB       (max)       0.00 MB       (current)
 **********************************************************************************************************************************

1PROGRAM * RHF-SCF (CLOSED SHELL)       Authors: W. Meyer, H.-J. Werner


 NUMBER OF ELECTRONS:      16+   16-    SPACE SYMMETRY=1    SPIN SYMMETRY=Singlet 
 CONVERGENCE THRESHOLDS:    1.00E-05 (Density)    1.00E-07 (Energy)
 MAX. NUMBER OF ITERATIONS:       60
 INTERPOLATION TYPE:            DIIS
 INTERPOLATION STEPS:              2 (START)      1 (STEP)
 LEVEL SHIFTS:                  0.00 (CLOSED)  0.00 (OPEN) 



 Orbital guess generated from atomic densities. Full valence occupancy:   22

 Molecular orbital dump at record        2100.2

 ITERATION    DDIFF          GRAD             ENERGY        2-EL.EN.            DIPOLE MOMENTS         DIIS
    1      0.000D+00      0.000D+00      -263.65953237    343.315349   -0.06882    1.17033    0.19888    0
    2      0.000D+00      0.469D-02      -263.72504035    338.797088   -0.01044    0.67535    0.11741    1
    3      0.752D-02      0.319D-02      -263.76859035    341.349843   -0.03293    0.79997    0.13685    2
    4      0.310D-02      0.300D-03      -263.76908698    341.136484   -0.03204    0.80267    0.13772    3
    5      0.356D-03      0.874D-04      -263.76914554    341.139683   -0.03184    0.79834    0.13674    4
    6      0.133D-03      0.354D-04      -263.76915281    341.154012   -0.03192    0.79844    0.13689    5
    7      0.443D-04      0.870D-05      -263.76915355    341.145822   -0.03182    0.79837    0.13681    6
    8      0.144D-04      0.204D-05      -263.76915360    341.146990   -0.03191    0.79813    0.13682    7
    9      0.398D-05      0.114D-05      -263.76915360    341.146932   -0.03183    0.79834    0.13681    0

 Final occupancy:  16

 !RHF STATE 1.1 Energy               -263.769153599921
 Nuclear energy                        73.96338974
 One-electron energy                 -508.30600957
 Two-electron energy                  170.57346623
 Virial quotient                       -1.00179949
 !RHF STATE 1.1 Dipole moment          -0.03183338     0.79834235     0.13681123
 Dipole moment /Debye                  -0.08090708     2.02905096     0.34771668

 Orbital energies:

         1.1          2.1          3.1          4.1          5.1          6.1          7.1          8.1          9.1         10.1
    -20.654115   -20.653011   -20.567760   -11.462439    -1.531083    -1.477782    -1.354727    -0.801429    -0.743527    -0.715550

        11.1         12.1         13.1         14.1         15.1         16.1         17.1         18.1
     -0.715104    -0.715087    -0.587553    -0.544806    -0.544752    -0.510815     0.029297     0.047150


 **********************************************************************************************************************************
 DATASETS  * FILE   NREC   LENGTH (MB)   RECORD NAMES
              1      18        4.62       500      610      700      900      950      970     1000      129      960     1100   
                                          VAR    BASINP    GEOM    SYMINP    ZMAT    AOBASIS   BASIS     P2S    ABASIS      S 
                                         1400     1410     1200     1210     1080     1600     1650     1700   
                                           T        V       H0       H01     AOSYM     SMH    MOLCAS    OPER   

              2       3        1.44       700     1000     2100   
                                         GEOM     BASIS     RHF  

 PROGRAMS   *        TOTAL        HF       INT
 CPU TIMES  *        10.46      6.39      3.99
 REAL TIME  *        11.20 SEC
 DISK USED  *         1.15 GB      
 SF USED    *         0.21 MB      
 GA USED    *         0.00 MB       (max)       0.00 MB       (current)
 **********************************************************************************************************************************


1PROGRAM * CCSD (Closed-shell coupled cluster)     Authors: C. Hampel, H.-J. Werner, 1991, M. Deegan, P.J. Knowles, 1992

                                  CCSD-F12 implementation by  H.-J. Werner, 2007

                   Density fitting integral evaluation by F.R. Manby, 2003,2007, G. Knizia, 2010

 Basis set CC-PVTZ/JKFIT generated.      Number of basis functions:   376 
 Basis set AUG-CC-PVTZ/MP2FIT generated. Number of basis functions:   516 

 Convergence thresholds:  THRVAR = 1.00D-08  THRDEN = 1.00D-06

 CCSD(T)     terms to be evaluated (factor= 1.000)


 Number of core orbitals:           4 (   4 )
 Number of closed-shell orbitals:  12 (  12 )
 Number of external orbitals:     214 ( 214 )

 Molecular orbitals read from record     2100.2  Type=RHF/CANONICAL (state 1.1)

 MP2-F12 correlation treatment (H.-J. Werner, 2006)
 --------------------------------------------------

 Using MP2-F12 with ansatz 3C(FIX)

 Using projected zeroth-order Hamiltonian (+Z)

 FOCKRIB=T FOCKRIC=T FOCKRIP=T CABSP=T CABSA=T CABSK=T CABSF=T GBC=F EBC=F DMAT=T NOFIK=T NOPAO=1 SOLVE=-1  USEPAO=0
 EXCH_A= T EXCH_B= F EXCH_C= F EXCH_P= F
 
 Geminal basis:    OPTFULL  GEM_TYPE=SLATER  BETA=1.0  NGEM=6

 Optimizing Gaussian exponents for each gem_beta

 Geminal optimization for beta= 1.0000
 Weight function:   m=0, omega= 1.4646

 Augmented Hessian optimization of geminal fit. Trust ratio= 0.40000
 Convergence reached after   2 iterations. Final gradient= 8.24D-16, Step= 4.32D-06, Delta= 1.28D-09
 
 Alpha:                 0.19532     0.81920     2.85917     9.50073    35.69989   197.79328
 Coeff:                 0.27070     0.30552     0.18297     0.10986     0.06810     0.04224
 

 All pairs explicitly correlated. Number of r12-pairs:           78
 
 AO(A)-basis ORBITAL           loaded. Number of functions:     230
 RI(R)-basis CC-PVTZ/JKFIT     loaded. Number of functions:     376
 DF-basis CC-PVTZ/JKFIT        loaded. Number of functions:     376

 Screening thresholds:   THRAO=  1.00D-10  THRMO=  1.00D-09  THRPROD=  1.00D-09
                         THRSW=  1.00D-05  THROV=  1.00D-12  THRF12=   1.00D-08

 CPU time for Fock operators                      0.82 sec
 
 Construction of ABS:
 Smallest eigenvalue of S          2.58E-04  (threshold= 1.00E-08)
 Ratio eigmin/eigmax               1.84E-06  (threshold= 1.00E-09)
 Smallest eigenvalue of S kept     2.58E-04  (threshold= 2.58E-04, 0 functions deleted, 376 kept)
 
 Construction of CABS:
 Smallest eigenvalue of S          2.30E-08  (threshold= 1.00E-08)
 Ratio eigmin/eigmax               2.30E-08  (threshold= 1.00E-09)
 Smallest eigenvalue of S kept     2.30E-08  (threshold= 2.30E-08, 0 functions deleted, 376 kept)
 
 CPU time for CABS singles                        0.16 sec

 CABS-singles contribution of  -0.01593107 patched into reference energy.
 New reference energy        -263.78508467
 
 AO(A)-basis ORBITAL           loaded. Number of functions:     230
 RI(R)-basis CC-PVTZ/JKFIT     loaded. Number of functions:     376
 DF-basis AUG-CC-PVTZ/MP2FIT   loaded. Number of functions:     516

 Screening thresholds:   THRAO=  1.00D-10  THRMO=  1.00D-09  THRPROD=  1.00D-09
                         THRSW=  1.00D-05  THROV=  1.00D-12  THRF12=   1.00D-08

 CPU time for 3-index integral evaluation         1.36 sec
 CPU time for first  half transformation          0.13 sec ( 7483.1 MFLOP/sec)
 CPU time for second half transformation          0.04 sec ( 1355.8 MFLOP/sec)
 CPU time for sorting                             0.08 sec
 CPU time for fitting                             0.04 sec (34826.3 MFLOP/sec)
 CPU time for tilde quantities                    0.06 sec (30814.7 MFLOP/sec)
 CPU time for assembly                            0.74 sec (31930.9 MFLOP/sec)
 CPU time for tranop_f12                          0.85 sec (35444.8 MFLOP/sec)
 CPU time for f12 integrals (total)               5.29 sec
 F12-matrices built in  3 passes.
 F12-matrices built in  3 passes.
 F12-matrices built in  3 passes.
 F12-matrices built in  3 passes.
 FC-matrix built in  3 passes.
 CPU time for f12 matrices (total)                0.50 sec

 Diagonal F12 approximation with fixed coefficients:  TSING= 0.500,  TTRIP= 0.250 (scaled by -1/beta)

 DF-MP2-F12 energy corrections:
 ------------------------------
 Approx.                                    Singlet             Triplet             Total
 DF-MP2-F12/3*C(DX,FIX)                -0.097444524406     -0.016933759946     -0.114378284352
 DF-MP2-F12/3*C(FIX)                   -0.079853655533     -0.013394890665     -0.093248546197
 DF-MP2-F12/3C(FIX)                    -0.080215126216     -0.013418682736     -0.093633808952

 DF-MP2-F12 correlation energies:
 --------------------------------
 Approx.                                    Singlet             Triplet             Ecorr            Total Energy
 DF-MP2                                -0.537789836749     -0.343131644160     -0.880921480910   -264.666006146327
 DF-MP2-F12/3*C(DX,FIX)                -0.635234361155     -0.360065404106     -0.995299765262   -264.780384430679
 DF-MP2-F12/3*C(FIX)                   -0.617643492282     -0.356526534825     -0.974170027107   -264.759254692525
 DF-MP2-F12/3C(FIX)                    -0.618004962965     -0.356550326896     -0.974555289861   -264.759639955279

 SCS-DF-MP2 energies (F_SING= 1.20000  F_TRIP= 0.62222  F_PARALLEL= 0.33333):
 ----------------------------------------------------------------------------
 SCS-DF-MP2                            -0.858851938243   -264.643936603661
 SCS-DF-MP2-F12/3*C(DX,FIX)            -0.986321929275   -264.771406594692
 SCS-DF-MP2-F12/3*C(FIX)               -0.963010923518   -264.748095588936
 SCS-DF-MP2-F12/3C(FIX)                -0.963459492294   -264.748544157712
 Symmetry transformation completed.

 Number of N-1 electron functions:              12
 Number of N-2 electron functions:              78
 Number of singly external CSFs:              2568
 Number of doubly external CSFs:           3298596
 Total number of CSFs:                     3301165

 Pair and operator lists are different

 Length of J-op  integral file:             474.22 MB
 Length of K-op  integral file:             572.29 MB
 Length of 3-ext integral record:             0.00 MB

 For full I/O caching in triples, increase memory by 50.81 Mwords to 151.09 Mwords.

 Integral transformation finished. Total CPU:  10.72 sec, npass=  1  Memory used:  87.46 MW

 Reference energy:                   -263.78508467

 Adding F12 terms to K(Cij), methodcc=6,  factor=1.0

 ITER.      SQ.NORM     CORR.ENERGY   TOTAL ENERGY   ENERGY CHANGE        DEN1      VAR(S)    VAR(P)  DIIS     TIME
   1      1.20216772    -0.86285309  -264.64793775     0.01808476     0.04674842  0.72D-02  0.56D-02  1  1    23.75
   2      1.21649142    -0.85861409  -264.64369876     0.00423899    -0.02016979  0.86D-04  0.59D-03  2  2    29.77
   3      1.22185527    -0.85870940  -264.64379406    -0.00009530    -0.00236198  0.13D-03  0.32D-04  3  3    36.60
   4      1.22466181    -0.85858080  -264.64366547     0.00012860    -0.00141259  0.76D-05  0.41D-05  4  4    43.44
   5      1.22569504    -0.85854284  -264.64362751     0.00003796    -0.00036737  0.56D-06  0.29D-06  5  5    50.29
   6      1.22585772    -0.85851590  -264.64360057     0.00002694    -0.00000807  0.40D-07  0.24D-07  6  6    57.12
   7      1.22588721    -0.85851346  -264.64359813     0.00000244    -0.00000622  0.26D-08  0.40D-08  6  4    63.93
   8      1.22588756    -0.85851296  -264.64359763     0.00000050     0.00000193  0.40D-09  0.28D-09  6  1    70.73
   9      1.22588816    -0.85851303  -264.64359770    -0.00000007     0.00000058  0.27D-10  0.22D-10  6  2    77.58

 Norm of t1 vector:      0.10606613      S-energy:     0.00000018      T1 diagnostic:  0.01530933
                                                                       D1 diagnostic:  0.04501000

 Adding energy correction from Wij-K(Fij), methodcc=6  factor=1.0
 
  CCSD correlation energy              -0.858513029726
  MP2-F12 correction (uncoupled)       -0.092475256607
  C*T doubles correction               -0.001477520383
  f12b correction                       0.015405132026


 Total CPU time for triples:    217.12 sec


 RESULTS
 =======

  Reference energy                   -263.769153599920
  F12 singles correction               -0.015931065497

 F12 singles corrections added to reference energy

  New reference energy               -263.785084665418

  F12a singlet correction              -0.080415865085
  F12a triplet correction              -0.013536911905
  F12a total correction                -0.093952776990

 F12a corrections for ansatz F12/3C(FIX) added to CCSD energy
 
  CCSD-F12a singlet pair energy        -0.641929291161
  CCSD-F12a triplet pair energy        -0.310536693404
  CCSD-F12a correlation energy         -0.952465806716

  Triples (T) contribution             -0.037658025467
  Total correlation energy             -0.990123832183

  CCSD-F12a total energy             -264.737550472133
  CCSD[T]-F12a energy                -264.777757118959
  CCSD-T-F12a energy                 -264.774269331754
 !CCSD(T)-F12a total energy          -264.775208497600

 F12b corrections for ansatz F12/3C(FIX) added to CCSD(T)-F12a energy

  CCSD-F12b singlet pair energy        -0.627747283298
  CCSD-F12b triplet pair energy        -0.309313569241
  CCSD-F12b correlation energy         -0.937060674690

  Triples (T) contribution             -0.037658025467
  Total correlation energy             -0.974718700157

  CCSD-F12b total energy             -264.722145340108
  CCSD[T]-F12b energy                -264.762351986933
  CCSD-T-F12b energy                 -264.758864199728
 !CCSD(T)-F12b total energy          -264.759803365575

 Timing summary (sec):

 STEP                 CPU(USER)    SYS     CPU(TOT)    WALL
 Transformation         10.82      1.01     11.83     11.82
 CCSD iterations        59.45      2.57     62.02     62.85
 Triples               217.12      2.49    219.61    219.52
 MP2-F12                 7.32      1.05      8.37      8.38
 F12b energy             3.95      0.03      3.98      3.97

 Program statistics:

 Available memory in ccsd:                99998934
 Min. memory needed in ccsd:               8644845
 Max. memory used in ccsd:                11598633
 Max. memory used in cckext:               8768967 (10 integral passes)



 **********************************************************************************************************************************
 DATASETS  * FILE   NREC   LENGTH (MB)   RECORD NAMES
              1      20      527.84       500      610      700      900      950      970     1000      129      960     1100   
                                          VAR    BASINP    GEOM    SYMINP    ZMAT    AOBASIS   BASIS     P2S    ABASIS      S 
                                         1400     1410     1200     1210     1080     1600     1650     1700      960(1)  1380   
                                           T        V       H0       H01     AOSYM     SMH    MOLCAS    OPER    ABASIS    JKOP   

              2       5        2.50       700     1000     2100     7360     7350   
                                         GEOM     BASIS     RHF    F12ABS    EF12   

 PROGRAMS   *        TOTAL   CCSD(T)        HF       INT
 CPU TIMES  *       309.15    298.69      6.39      3.99
 REAL TIME  *       318.06 SEC
 DISK USED  *         2.01 GB      
 SF USED    *         1.91 GB      
 GA USED    *         2.40 MB       (max)       0.00 MB       (current)
 **********************************************************************************************************************************

     CCSD(T)-F12        HF-SCF  
   -264.75980337   -263.76915360
 **********************************************************************************************************************************
 Variable memory released
