
 Primary working directories    : /scratch/kee
 Secondary working directories  : /scratch/kee
 Wavefunction directory         : /home/kee/wfu/
 Main file repository           : /scratch/kee/

 ARCHNAME  : Linux/x86_64
 FC        : /opt/intel/composer_xe_2015.0.090/bin/intel64/ifort
 FCVERSION : 15.0.0
 BLASLIB   : -L/opt/intel/mkl/lib/intel64 -lmkl_intel_ilp64 -lmkl_sequential -lmkl_core
 id        : emory

 Nodes     nprocs
 node7        3
 Number of processes for MPI-2 version of Molpro:   nprocs(total)=    4   nprocs(compute)=    3   nprocs(helper)=    1
 ga_uses_ma=false, calling ma_init with nominal heap.
 GA-space will be limited to   8.0 MW (determined by -G option)

 Using customized tuning parameters: mindgm=7; mindgv=32; mindgc=1; mindgr=1; noblas=0; mincuda=1000; minvec=7
 default implementation of scratch files=sf  

 ***,co2h2o
 memory,100,m
 basis avtz
 geomtype = xyz
 geometry = {
 6
       0.00000000
 O     0.00351000    1.16210700    0.00000000
 O     0.00351000   -1.16210700    0.00000000
 O     4.06968000    0.00000000    0.00000000
 H     4.65589800    0.00000000    0.75853100
 H     4.65589800    0.00000000   -0.75853100
 C     0.01968000    0.00000000    0.00000000
 }
 hf
 ccsd(t)-f12
 ---

 Variables initialized (665), CPU time= 0.00 sec
 Commands  initialized (462), CPU time= 0.01 sec, 486 directives.
 Default parameters read. Elapsed time= 0.03 sec

 Checking input...
 Passed
1


                                         ***  PROGRAM SYSTEM MOLPRO  ***
                         Copyright, University College Cardiff Consultants Limited, 2008

                                    Version 2010.1 linked 9 Dec 2014 15:06:28 


 **********************************************************************************************************************************
 LABEL *   co2h2o                                                                        
 Linux-2.6.32-504.el6.x86_64/node7(x86_64) 64 bit mpp version                            DATE: 12-Dec-16          TIME: 14:57:50  
 **********************************************************************************************************************************

 Patch level:      19
 **********************************************************************************************************************************

 Variable memory set to  100000000 words,  buffer space   230000 words

 SETTING BASIS          =    AVTZ
 SETTING GEOMTYPE       =    XYZ

Geometry recognized as XYZ



 Recomputing integrals since basis changed


 Using spherical harmonics

 Library entry O      S aug-cc-pVTZ          selected for orbital group  1
 Library entry O      P aug-cc-pVTZ          selected for orbital group  1
 Library entry O      D aug-cc-pVTZ          selected for orbital group  1
 Library entry O      F aug-cc-pVTZ          selected for orbital group  1
 Library entry H      S aug-cc-pVTZ          selected for orbital group  2
 Library entry H      P aug-cc-pVTZ          selected for orbital group  2
 Library entry H      D aug-cc-pVTZ          selected for orbital group  2
 Library entry C      S aug-cc-pVTZ          selected for orbital group  3
 Library entry C      P aug-cc-pVTZ          selected for orbital group  3
 Library entry C      D aug-cc-pVTZ          selected for orbital group  3
 Library entry C      F aug-cc-pVTZ          selected for orbital group  3

1PROGRAM * SEWARD (Integral evaluation for generally contracted gaussian basis sets)     Author: Roland Lindh, 1990

 Geometry written to block  1 of record 700


 Point group  C2v 



 ATOMIC COORDINATES

 NR  ATOM    CHARGE       X              Y              Z

   1  O       8.00    0.006632939    2.196063965    0.000000000
   2  O       8.00    0.006632939   -2.196063965    0.000000000
   3  O       8.00    7.690580643    0.000000000    0.000000000
   4  H       1.00    8.798372116    0.000000000    1.433415852
   5  H       1.00    8.798372116    0.000000000   -1.433415852
   6  C       6.00    0.037189810    0.000000000    0.000000000

 Bond lengths in Bohr (Angstrom)

 1-6  2.196276545  2-6  2.196276545  3-4  1.811596797  3-5  1.811596797
     (1.162219492)     (1.162219492)     (0.958655737)     (0.958655737)

 Bond angles

  1-6-2  178.40563223   4-3-5  104.60391356

 NUCLEAR CHARGE:                   32
 NUMBER OF PRIMITIVE AOS:         322
 NUMBER OF SYMMETRY AOS:          282
 NUMBER OF CONTRACTIONS:          230   (  84A1  +  59B1  +  54B2  +  33A2  )
 NUMBER OF CORE ORBITALS:           4   (   3A1  +   1B1  +   0B2  +   0A2  )
 NUMBER OF VALENCE ORBITALS:       18   (   8A1  +   5B1  +   4B2  +   1A2  )


 NUCLEAR REPULSION ENERGY   94.59083143


 Eigenvalues of metric

         1 0.352E-03 0.367E-03 0.894E-03 0.159E-02 0.284E-02 0.320E-02 0.356E-02 0.415E-02
         2 0.348E-03 0.913E-03 0.174E-02 0.324E-02 0.537E-02 0.732E-02 0.162E-01 0.208E-01
         3 0.388E-03 0.164E-02 0.317E-02 0.451E-02 0.619E-02 0.951E-02 0.134E-01 0.148E-01
         4 0.348E-02 0.124E-01 0.296E-01 0.362E-01 0.559E-01 0.680E-01 0.109E+00 0.140E+00


 Contracted 2-electron integrals neglected if value below      1.0D-11
 AO integral compression algorithm  1   Integral accuracy      1.0D-11

     310.641 MB (compressed) written to integral file ( 34.8%)

     Node minimum: 95.420 MB, node maximum: 110.625 MB


 NUMBER OF SORTED TWO-ELECTRON INTEGRALS:   29979201.     BUFFER LENGTH:  32768
 NUMBER OF SEGMENTS:   2  SEGMENT LENGTH:   15996954      RECORD LENGTH: 524288

 Memory used in sort:      16.55 MW

 SORT1 READ   111555100. AND WROTE    22268329. INTEGRALS IN     64 RECORDS. CPU TIME:     2.40 SEC, REAL TIME:     2.64 SEC
 SORT2 READ    67039391. AND WROTE    89930217. INTEGRALS IN   1092 RECORDS. CPU TIME:     0.68 SEC, REAL TIME:     0.85 SEC

 Node minimum:    29974277.  Node maximum:    29979201. integrals

 OPERATOR DM      FOR CENTER  0  COORDINATES:    0.000000    0.000000    0.000000


 **********************************************************************************************************************************
 DATASETS  * FILE   NREC   LENGTH (MB)   RECORD NAMES
              1      18        3.23       500      610      700      900      950      970     1000      129      960     1100   
                                          VAR    BASINP    GEOM    SYMINP    ZMAT    AOBASIS   BASIS     P2S    ABASIS      S 
                                         1400     1410     1200     1210     1080     1600     1650     1700   
                                           T        V       H0       H01     AOSYM     SMH    MOLCAS    OPER   

 PROGRAMS   *        TOTAL       INT
 CPU TIMES  *         5.26      5.20
 REAL TIME  *         5.80 SEC
 DISK USED  *         1.10 GB      
 GA USED    *         0.00 MB       (max)       0.00 MB       (current)
 **********************************************************************************************************************************

1PROGRAM * RHF-SCF (CLOSED SHELL)       Authors: W. Meyer, H.-J. Werner


 NUMBER OF ELECTRONS:      16+   16-
 CONVERGENCE THRESHOLDS:    1.00E-05 (Density)    1.00E-07 (Energy)
 MAX. NUMBER OF ITERATIONS:       60
 INTERPOLATION TYPE:            DIIS
 INTERPOLATION STEPS:              2 (START)      1 (STEP)
 LEVEL SHIFTS:                  0.00 (CLOSED)  0.00 (OPEN) 



 Orbital guess generated from atomic densities. Full valence occupancy:   11   6   4   1

 Molecular orbital dump at record        2100.2

 Initial alpha occupancy:   8   5   2   1
 Initial beta  occupancy:   8   5   2   1
 Wave function symmetry:    1

 ITERATION    DDIFF          GRAD             ENERGY        2-EL.EN.            DIPOLE MOMENTS         DIIS
    1      0.000D+00      0.000D+00      -263.66280565    385.191334    1.18169    0.00000    0.00000    0
    2      0.000D+00      0.883D-02      -263.72765426    380.483416    0.74722    0.00000    0.00000    1
    3      0.142D-01      0.597D-02      -263.76998741    383.046933    0.85095    0.00000    0.00000    2
    4      0.582D-02      0.569D-03      -263.77048230    382.843099    0.85394    0.00000    0.00000    3
    5      0.696D-03      0.166D-03      -263.77054050    382.840520    0.84915    0.00000    0.00000    4
    6      0.259D-03      0.674D-04      -263.77054782    382.856112    0.84996    0.00000    0.00000    5
    7      0.864D-04      0.163D-04      -263.77054855    382.847573    0.84955    0.00000    0.00000    6
    8      0.282D-04      0.359D-05      -263.77054860    382.848897    0.84956    0.00000    0.00000    7
    9      0.767D-05      0.120D-05      -263.77054860    382.848684    0.84953    0.00000    0.00000    0

 Final occupancy:   8   5   2   1

 !RHF STATE 1.1 Energy               -263.770548598680
 Nuclear energy                        94.59083143
 One-electron energy                 -549.78572189
 Two-electron energy                  191.42434187
 Virial quotient                       -1.00183861
 !RHF STATE 1.1 Dipole moment           0.84953343     0.00000000     0.00000000
 Dipole moment /Debye                   2.15915716     0.00000000     0.00000000

 Orbital energies:

         1.1          2.1          3.1          4.1          5.1          6.1          7.1          8.1          9.1         10.1
    -20.641515   -20.571723   -11.450659    -1.519173    -1.357200    -0.789826    -0.702932    -0.589615     0.027207     0.060295

         1.2          2.2          3.2          4.2          5.2          6.2          7.2
    -20.641561    -1.466159    -0.732159    -0.533026    -0.514654     0.085979     0.157285

         1.3          2.3          3.3          4.3
     -0.721635    -0.703453     0.045915     0.085437

         1.4          2.4          3.4
     -0.533228     0.169537     0.265395


 **********************************************************************************************************************************
 DATASETS  * FILE   NREC   LENGTH (MB)   RECORD NAMES
              1      18        3.25       500      610      700      900      950      970     1000      129      960     1100   
                                          VAR    BASINP    GEOM    SYMINP    ZMAT    AOBASIS   BASIS     P2S    ABASIS      S 
                                         1400     1410     1200     1210     1080     1600     1650     1700   
                                           T        V       H0       H01     AOSYM     SMH    MOLCAS    OPER   

              2       3        0.67       700     1000     2100   
                                         GEOM     BASIS     RHF  

 PROGRAMS   *        TOTAL        HF       INT
 CPU TIMES  *         6.66      1.40      5.20
 REAL TIME  *         7.29 SEC
 DISK USED  *         1.12 GB      
 SF USED    *         0.06 MB      
 GA USED    *         0.00 MB       (max)       0.00 MB       (current)
 **********************************************************************************************************************************


1PROGRAM * CCSD (Closed-shell coupled cluster)     Authors: C. Hampel, H.-J. Werner, 1991, M. Deegan, P.J. Knowles, 1992

                                  CCSD-F12 implementation by  H.-J. Werner, 2007

                   Density fitting integral evaluation by F.R. Manby, 2003,2007, G. Knizia, 2010

 Basis set CC-PVTZ/JKFIT generated.      Number of basis functions:   376 
 Basis set AUG-CC-PVTZ/MP2FIT generated. Number of basis functions:   516 

 Convergence thresholds:  THRVAR = 1.00D-08  THRDEN = 1.00D-06

 CCSD(T)     terms to be evaluated (factor= 1.000)


 Number of core orbitals:           4 (   3   1   0   0 )
 Number of closed-shell orbitals:  12 (   5   4   2   1 )
 Number of external orbitals:     214 (  76  54  52  32 )

 Molecular orbitals read from record     2100.2  Type=RHF/CANONICAL (state 1.1)

 MP2-F12 correlation treatment (H.-J. Werner, 2006)
 --------------------------------------------------

 Using MP2-F12 with ansatz 3C(FIX)

 Using projected zeroth-order Hamiltonian (+Z)

 FOCKRIB=T FOCKRIC=T FOCKRIP=T CABSP=T CABSA=T CABSK=T CABSF=T GBC=F EBC=F DMAT=T NOFIK=T NOPAO=1 SOLVE=-1  USEPAO=0
 EXCH_A= T EXCH_B= F EXCH_C= F EXCH_P= F
 
 Geminal basis:    OPTFULL  GEM_TYPE=SLATER  BETA=1.0  NGEM=6

 Optimizing Gaussian exponents for each gem_beta

 Geminal optimization for beta= 1.0000
 Weight function:   m=0, omega= 1.4646

 Augmented Hessian optimization of geminal fit. Trust ratio= 0.40000
 Convergence reached after   2 iterations. Final gradient= 8.24D-16, Step= 4.32D-06, Delta= 1.28D-09
 
 Alpha:                 0.19532     0.81920     2.85917     9.50073    35.69989   197.79328
 Coeff:                 0.27070     0.30552     0.18297     0.10986     0.06810     0.04224
 

 Symmetry turned off. Reference energy:       -263.770548598680

 All pairs explicitly correlated. Number of r12-pairs:           78
 
 AO(A)-basis ORBITAL           loaded. Number of functions:     230
 RI(R)-basis CC-PVTZ/JKFIT     loaded. Number of functions:     376
 DF-basis CC-PVTZ/JKFIT        loaded. Number of functions:     376

 Screening thresholds:   THRAO=  1.00D-10  THRMO=  1.00D-09  THRPROD=  1.00D-09
                         THRSW=  1.00D-05  THROV=  1.00D-12  THRF12=   1.00D-08

 CPU time for Fock operators                      0.96 sec
 
 Construction of ABS:
 Smallest eigenvalue of S          2.57E-04  (threshold= 1.00E-08)
 Ratio eigmin/eigmax               1.83E-06  (threshold= 1.00E-09)
 Smallest eigenvalue of S kept     2.57E-04  (threshold= 2.57E-04, 0 functions deleted, 376 kept)
 
 Construction of CABS:
 Smallest eigenvalue of S          2.29E-08  (threshold= 1.00E-08)
 Ratio eigmin/eigmax               2.29E-08  (threshold= 1.00E-09)
 Smallest eigenvalue of S kept     2.29E-08  (threshold= 2.29E-08, 0 functions deleted, 376 kept)
 
 CPU time for CABS singles                        0.16 sec

 CABS-singles contribution of  -0.01592360 patched into reference energy.
 New reference energy        -263.78647220
 
 AO(A)-basis ORBITAL           loaded. Number of functions:     230
 RI(R)-basis CC-PVTZ/JKFIT     loaded. Number of functions:     376
 DF-basis AUG-CC-PVTZ/MP2FIT   loaded. Number of functions:     516

 Screening thresholds:   THRAO=  1.00D-10  THRMO=  1.00D-09  THRPROD=  1.00D-09
                         THRSW=  1.00D-05  THROV=  1.00D-12  THRF12=   1.00D-08

 CPU time for 3-index integral evaluation         2.90 sec
 CPU time for first  half transformation          0.23 sec (12658.7 MFLOP/sec)
 CPU time for second half transformation          0.03 sec ( 3455.6 MFLOP/sec)
 CPU time for sorting                             0.09 sec
 CPU time for fitting                             0.06 sec (23075.5 MFLOP/sec)
 CPU time for tilde quantities                    0.09 sec (20543.1 MFLOP/sec)
 CPU time for assembly                            0.82 sec (30559.2 MFLOP/sec)
 CPU time for tranop_f12                          0.93 sec (34055.6 MFLOP/sec)
 CPU time for f12 integrals (total)               7.25 sec
 F12-matrices built in  3 passes.
 F12-matrices built in  3 passes.
 F12-matrices built in  3 passes.
 F12-matrices built in  3 passes.
 FC-matrix built in  3 passes.
 CPU time for f12 matrices (total)                0.56 sec

 Diagonal F12 approximation with fixed coefficients:  TSING= 0.500,  TTRIP= 0.250 (scaled by -1/beta)

 DF-MP2-F12 energy corrections:
 ------------------------------
 Approx.                                    Singlet             Triplet             Total
 DF-MP2-F12/3*C(DX,FIX)                -0.097412893804     -0.016931521726     -0.114344415530
 DF-MP2-F12/3*C(FIX)                   -0.079836368636     -0.013396714704     -0.093233083341
 DF-MP2-F12/3C(FIX)                    -0.080198958959     -0.013421697562     -0.093620656521

 DF-MP2-F12 correlation energies:
 --------------------------------
 Approx.                                    Singlet             Triplet             Ecorr            Total Energy
 DF-MP2                                -0.537720721964     -0.343211333067     -0.880932055031   -264.667404257764
 DF-MP2-F12/3*C(DX,FIX)                -0.635133615767     -0.360142854793     -0.995276470561   -264.781748673294
 DF-MP2-F12/3*C(FIX)                   -0.617557090600     -0.356608047772     -0.974165138372   -264.760637341105
 DF-MP2-F12/3C(FIX)                    -0.617919680922     -0.356633030630     -0.974552711552   -264.761024914285

 SCS-DF-MP2 energies (F_SING= 1.20000  F_TRIP= 0.62222  F_PARALLEL= 0.33333):
 ----------------------------------------------------------------------------
 SCS-DF-MP2                            -0.858818584709   -264.645290787443
 SCS-DF-MP2-F12/3*C(DX,FIX)            -0.986249226348   -264.772721429081
 SCS-DF-MP2-F12/3*C(FIX)               -0.962957960667   -264.749430163400
 SCS-DF-MP2-F12/3C(FIX)                -0.963408613943   -264.749880816676

 Symmetry restored.
 Symmetry transformation completed.

 Number of N-1 electron functions:              12
 Number of N-2 electron functions:              78
 Number of singly external CSFs:               732
 Number of doubly external CSFs:            836016
 Total number of CSFs:                      836749

 Pair and operator lists are different

 Length of J-op  integral file:             462.26 MB
 Length of K-op  integral file:             502.03 MB
 Length of 3-ext integral record:             0.00 MB

 Memory could be reduced to 38.69 Mwords without degradation in triples

 Integral transformation finished. Total CPU:   1.53 sec, npass=  1  Memory used:   6.07 MW

 Reference energy:                   -263.78647220

 Adding F12 terms to K(Cij), methodcc=6,  factor=1.0

 ITER.      SQ.NORM     CORR.ENERGY   TOTAL ENERGY   ENERGY CHANGE        DEN1      VAR(S)    VAR(P)  DIIS     TIME
   1      1.20213816    -0.86288941  -264.64936162     0.01805845     0.04665758  0.72D-02  0.56D-02  1  1    11.76
   2      1.21644692    -0.85868098  -264.64515319     0.00420843    -0.02013917  0.87D-04  0.59D-03  2  2    12.75
   3      1.22181485    -0.85878138  -264.64525358    -0.00010039    -0.00236654  0.13D-03  0.32D-04  3  3    13.71
   4      1.22462167    -0.85865392  -264.64512612     0.00012746    -0.00141243  0.76D-05  0.41D-05  4  4    14.67
   5      1.22565326    -0.85861636  -264.64508856     0.00003756    -0.00036628  0.56D-06  0.29D-06  5  5    15.67
   6      1.22581578    -0.85858947  -264.64506167     0.00002689    -0.00000807  0.40D-07  0.24D-07  6  6    16.69
   7      1.22584526    -0.85858705  -264.64505925     0.00000242    -0.00000623  0.26D-08  0.40D-08  6  4    17.73
   8      1.22584560    -0.85858655  -264.64505875     0.00000049     0.00000193  0.39D-09  0.27D-09  6  1    18.79
   9      1.22584622    -0.85858662  -264.64505882    -0.00000007     0.00000056  0.27D-10  0.22D-10  6  2    19.82

 Norm of t1 vector:      0.10603803      S-energy:    -0.00000003      T1 diagnostic:  0.01530527
                                                                       D1 diagnostic:  0.04508401

 Adding energy correction from Wij-K(Fij), methodcc=6  factor=1.0
 
  CCSD correlation energy              -0.858586618147
  MP2-F12 correction (uncoupled)       -0.092465478895
  C*T doubles correction               -0.001472343758
  f12b correction                       0.015405051475


 Total CPU time for triples:     30.06 sec


 RESULTS
 =======

  Reference energy                   -263.770548598680
  F12 singles correction               -0.015923604053

 F12 singles corrections added to reference energy

  New reference energy               -263.786472202733

  F12a singlet correction              -0.080398264575
  F12a triplet correction              -0.013539558078
  F12a total correction                -0.093937822652

 F12a corrections for ansatz F12/3C(FIX) added to CCSD energy
 
  CCSD-F12a singlet pair energy        -0.641841512579
  CCSD-F12a triplet pair energy        -0.310682896979
  CCSD-F12a correlation energy         -0.952524440799

  Triples (T) contribution             -0.037669647893
  Total correlation energy             -0.990194088692

  CCSD-F12a total energy             -264.738996643533
  CCSD[T]-F12a energy                -264.779207436864
  CCSD-T-F12a energy                 -264.775730740831
 !CCSD(T)-F12a total energy          -264.776666291426

 F12b corrections for ansatz F12/3C(FIX) added to CCSD(T)-F12a energy

  CCSD-F12b singlet pair energy        -0.627660196733
  CCSD-F12b triplet pair energy        -0.309459161351
  CCSD-F12b correlation energy         -0.937119389325

  Triples (T) contribution             -0.037669647893
  Total correlation energy             -0.974789037218

  CCSD-F12b total energy             -264.723591592058
  CCSD[T]-F12b energy                -264.763802385389
  CCSD-T-F12b energy                 -264.760325689356
 !CCSD(T)-F12b total energy          -264.761261239951

 Timing summary (sec):

 STEP                 CPU(USER)    SYS     CPU(TOT)    WALL
 Transformation          1.53      0.24      1.77      1.76
 CCSD iterations         9.01      0.77      9.78      9.78
 Triples                30.06      0.77     30.83     30.81
 MP2-F12                 9.30      1.07     10.37     10.41
 F12b energy             0.60      0.02      0.62      0.62

 Program statistics:

 Available memory in ccsd:                99998934
 Min. memory needed in ccsd:               2244783
 Max. memory used in ccsd:                 3005571
 Max. memory used in cckext:               2769663 (10 integral passes)



 **********************************************************************************************************************************
 DATASETS  * FILE   NREC   LENGTH (MB)   RECORD NAMES
              1      20      137.19       500      610      700      900      950      970     1000      129      960     1100   
                                          VAR    BASINP    GEOM    SYMINP    ZMAT    AOBASIS   BASIS     P2S    ABASIS      S 
                                         1400     1410     1200     1210     1080     1600     1650     1700      960(1)  1380   
                                           T        V       H0       H01     AOSYM     SMH    MOLCAS    OPER    ABASIS    JKOP   

              2       5        0.97       700     1000     2100     7360     7350   
                                         GEOM     BASIS     RHF    F12ABS    EF12   

 PROGRAMS   *        TOTAL   CCSD(T)        HF       INT
 CPU TIMES  *        57.17     50.51      1.40      5.20
 REAL TIME  *        60.92 SEC
 DISK USED  *         1.34 GB      
 SF USED    *         1.34 GB      
 GA USED    *         2.40 MB       (max)       0.00 MB       (current)
 **********************************************************************************************************************************

     CCSD(T)-F12        HF-SCF  
   -264.76126124   -263.77054860
 **********************************************************************************************************************************
 Variable memory released
