
 Primary working directories    : /scratch/kee
 Secondary working directories  : /scratch/kee
 Wavefunction directory         : /home/kee/wfu/
 Main file repository           : /scratch/kee/

 ARCHNAME  : Linux/x86_64
 FC        : /opt/intel/composer_xe_2015.0.090/bin/intel64/ifort
 FCVERSION : 15.0.0
 BLASLIB   : -L/opt/intel/mkl/lib/intel64 -lmkl_intel_ilp64 -lmkl_sequential -lmkl_core
 id        : emory

 Nodes     nprocs
 node7        3
 Number of processes for MPI-2 version of Molpro:   nprocs(total)=    4   nprocs(compute)=    3   nprocs(helper)=    1
 ga_uses_ma=false, calling ma_init with nominal heap.
 GA-space will be limited to   8.0 MW (determined by -G option)

 Using customized tuning parameters: mindgm=7; mindgv=32; mindgc=1; mindgr=1; noblas=0; mincuda=1000; minvec=7
 default implementation of scratch files=sf  

 ***,co2h2o
 memory,100,m
 basis avtz
 geomtype = xyz
 geometry = {
 6
       0.00000000
 O     0.00351000    1.16210700    0.00000000
 O     0.00351000   -1.16210700    0.00000000
 O     3.86968000    0.00000000    0.00000000
 H     4.45589800    0.00000000    0.75853100
 H     4.45589800    0.00000000   -0.75853100
 C     0.01968000    0.00000000    0.00000000
 }
 hf
 ccsd(t)-f12
 ---

 Variables initialized (665), CPU time= 0.01 sec
 Commands  initialized (462), CPU time= 0.01 sec, 486 directives.
 Default parameters read. Elapsed time= 0.03 sec

 Checking input...
 Passed
1


                                         ***  PROGRAM SYSTEM MOLPRO  ***
                         Copyright, University College Cardiff Consultants Limited, 2008

                                    Version 2010.1 linked 9 Dec 2014 15:06:28 


 **********************************************************************************************************************************
 LABEL *   co2h2o                                                                        
 Linux-2.6.32-504.el6.x86_64/node7(x86_64) 64 bit mpp version                            DATE: 12-Dec-16          TIME: 14:54:00  
 **********************************************************************************************************************************

 Patch level:      19
 **********************************************************************************************************************************

 Variable memory set to  100000000 words,  buffer space   230000 words

 SETTING BASIS          =    AVTZ
 SETTING GEOMTYPE       =    XYZ

Geometry recognized as XYZ



 Recomputing integrals since basis changed


 Using spherical harmonics

 Library entry O      S aug-cc-pVTZ          selected for orbital group  1
 Library entry O      P aug-cc-pVTZ          selected for orbital group  1
 Library entry O      D aug-cc-pVTZ          selected for orbital group  1
 Library entry O      F aug-cc-pVTZ          selected for orbital group  1
 Library entry H      S aug-cc-pVTZ          selected for orbital group  2
 Library entry H      P aug-cc-pVTZ          selected for orbital group  2
 Library entry H      D aug-cc-pVTZ          selected for orbital group  2
 Library entry C      S aug-cc-pVTZ          selected for orbital group  3
 Library entry C      P aug-cc-pVTZ          selected for orbital group  3
 Library entry C      D aug-cc-pVTZ          selected for orbital group  3
 Library entry C      F aug-cc-pVTZ          selected for orbital group  3

1PROGRAM * SEWARD (Integral evaluation for generally contracted gaussian basis sets)     Author: Roland Lindh, 1990

 Geometry written to block  1 of record 700


 Point group  C2v 



 ATOMIC COORDINATES

 NR  ATOM    CHARGE       X              Y              Z

   1  O       8.00    0.006632939    2.196063965    0.000000000
   2  O       8.00    0.006632939   -2.196063965    0.000000000
   3  O       8.00    7.312635416    0.000000000    0.000000000
   4  H       1.00    8.420426890    0.000000000    1.433415852
   5  H       1.00    8.420426890    0.000000000   -1.433415852
   6  C       6.00    0.037189810    0.000000000    0.000000000

 Bond lengths in Bohr (Angstrom)

 1-6  2.196276545  2-6  2.196276545  3-4  1.811596797  3-5  1.811596797
     (1.162219492)     (1.162219492)     (0.958655737)     (0.958655737)

 Bond angles

  1-6-2  178.40563223   4-3-5  104.60391356

 NUCLEAR CHARGE:                   32
 NUMBER OF PRIMITIVE AOS:         322
 NUMBER OF SYMMETRY AOS:          282
 NUMBER OF CONTRACTIONS:          230   (  84A1  +  59B1  +  54B2  +  33A2  )
 NUMBER OF CORE ORBITALS:           4   (   3A1  +   1B1  +   0B2  +   0A2  )
 NUMBER OF VALENCE ORBITALS:       18   (   8A1  +   5B1  +   4B2  +   1A2  )


 NUCLEAR REPULSION ENERGY   95.88041542


 Eigenvalues of metric

         1 0.342E-03 0.371E-03 0.892E-03 0.155E-02 0.269E-02 0.319E-02 0.344E-02 0.410E-02
         2 0.348E-03 0.905E-03 0.174E-02 0.321E-02 0.527E-02 0.723E-02 0.158E-01 0.208E-01
         3 0.386E-03 0.163E-02 0.316E-02 0.440E-02 0.619E-02 0.933E-02 0.134E-01 0.146E-01
         4 0.347E-02 0.124E-01 0.296E-01 0.362E-01 0.558E-01 0.680E-01 0.109E+00 0.140E+00


 Contracted 2-electron integrals neglected if value below      1.0D-11
 AO integral compression algorithm  1   Integral accuracy      1.0D-11

     324.010 MB (compressed) written to integral file ( 36.3%)

     Node minimum: 104.333 MB, node maximum: 114.295 MB


 NUMBER OF SORTED TWO-ELECTRON INTEGRALS:   29979201.     BUFFER LENGTH:  32768
 NUMBER OF SEGMENTS:   2  SEGMENT LENGTH:   15996954      RECORD LENGTH: 524288

 Memory used in sort:      16.55 MW

 SORT1 READ   111555100. AND WROTE    23188067. INTEGRALS IN     68 RECORDS. CPU TIME:     2.40 SEC, REAL TIME:     2.71 SEC
 SORT2 READ    69802826. AND WROTE    89930217. INTEGRALS IN   1194 RECORDS. CPU TIME:     0.65 SEC, REAL TIME:     0.86 SEC

 Node minimum:    29974277.  Node maximum:    29979201. integrals

 OPERATOR DM      FOR CENTER  0  COORDINATES:    0.000000    0.000000    0.000000


 **********************************************************************************************************************************
 DATASETS  * FILE   NREC   LENGTH (MB)   RECORD NAMES
              1      18        3.23       500      610      700      900      950      970     1000      129      960     1100   
                                          VAR    BASINP    GEOM    SYMINP    ZMAT    AOBASIS   BASIS     P2S    ABASIS      S 
                                         1400     1410     1200     1210     1080     1600     1650     1700   
                                           T        V       H0       H01     AOSYM     SMH    MOLCAS    OPER   

 PROGRAMS   *        TOTAL       INT
 CPU TIMES  *         5.28      5.21
 REAL TIME  *         6.06 SEC
 DISK USED  *         1.16 GB      
 GA USED    *         0.00 MB       (max)       0.00 MB       (current)
 **********************************************************************************************************************************

1PROGRAM * RHF-SCF (CLOSED SHELL)       Authors: W. Meyer, H.-J. Werner


 NUMBER OF ELECTRONS:      16+   16-
 CONVERGENCE THRESHOLDS:    1.00E-05 (Density)    1.00E-07 (Energy)
 MAX. NUMBER OF ITERATIONS:       60
 INTERPOLATION TYPE:            DIIS
 INTERPOLATION STEPS:              2 (START)      1 (STEP)
 LEVEL SHIFTS:                  0.00 (CLOSED)  0.00 (OPEN) 



 Orbital guess generated from atomic densities. Full valence occupancy:   11   6   4   1

 Molecular orbital dump at record        2100.2

 Initial alpha occupancy:   8   5   2   1
 Initial beta  occupancy:   8   5   2   1
 Wave function symmetry:    1

 ITERATION    DDIFF          GRAD             ENERGY        2-EL.EN.            DIPOLE MOMENTS         DIIS
    1      0.000D+00      0.000D+00      -263.66331515    387.819477    1.18250    0.00000    0.00000    0
    2      0.000D+00      0.882D-02      -263.72806480    383.102471    0.75836    0.00000    0.00000    1
    3      0.142D-01      0.596D-02      -263.77019337    385.661837    0.85868    0.00000    0.00000    2
    4      0.581D-02      0.569D-03      -263.77068822    385.459768    0.86156    0.00000    0.00000    3
    5      0.696D-03      0.166D-03      -263.77074645    385.456301    0.85685    0.00000    0.00000    4
    6      0.259D-03      0.675D-04      -263.77075381    385.472095    0.85768    0.00000    0.00000    5
    7      0.865D-04      0.162D-04      -263.77075454    385.463537    0.85727    0.00000    0.00000    6
    8      0.282D-04      0.358D-05      -263.77075459    385.464865    0.85729    0.00000    0.00000    7
    9      0.767D-05      0.120D-05      -263.77075459    385.464649    0.85726    0.00000    0.00000    0

 Final occupancy:   8   5   2   1

 !RHF STATE 1.1 Energy               -263.770754590100
 Nuclear energy                        95.88041542
 One-electron energy                 -552.38349463
 Two-electron energy                  192.73232462
 Virial quotient                       -1.00183980
 !RHF STATE 1.1 Dipole moment           0.85726102     0.00000000     0.00000000
 Dipole moment /Debye                   2.17879747     0.00000000     0.00000000

 Orbital energies:

         1.1          2.1          3.1          4.1          5.1          6.1          7.1          8.1          9.1         10.1
    -20.640324   -20.572379   -11.449536    -1.517989    -1.357890    -0.788718    -0.701725    -0.590459     0.026960     0.061023

         1.2          2.2          3.2          4.2          5.2          6.2          7.2
    -20.640370    -1.464989    -0.731069    -0.531924    -0.515309     0.086218     0.159250

         1.3          2.3          3.3          4.3
     -0.722320    -0.702312     0.045844     0.086191

         1.4          2.4          3.4
     -0.532108     0.169637     0.265941


 **********************************************************************************************************************************
 DATASETS  * FILE   NREC   LENGTH (MB)   RECORD NAMES
              1      18        3.25       500      610      700      900      950      970     1000      129      960     1100   
                                          VAR    BASINP    GEOM    SYMINP    ZMAT    AOBASIS   BASIS     P2S    ABASIS      S 
                                         1400     1410     1200     1210     1080     1600     1650     1700   
                                           T        V       H0       H01     AOSYM     SMH    MOLCAS    OPER   

              2       3        0.67       700     1000     2100   
                                         GEOM     BASIS     RHF  

 PROGRAMS   *        TOTAL        HF       INT
 CPU TIMES  *         6.68      1.40      5.21
 REAL TIME  *         7.58 SEC
 DISK USED  *         1.17 GB      
 SF USED    *         0.06 MB      
 GA USED    *         0.00 MB       (max)       0.00 MB       (current)
 **********************************************************************************************************************************


1PROGRAM * CCSD (Closed-shell coupled cluster)     Authors: C. Hampel, H.-J. Werner, 1991, M. Deegan, P.J. Knowles, 1992

                                  CCSD-F12 implementation by  H.-J. Werner, 2007

                   Density fitting integral evaluation by F.R. Manby, 2003,2007, G. Knizia, 2010

 Basis set CC-PVTZ/JKFIT generated.      Number of basis functions:   376 
 Basis set AUG-CC-PVTZ/MP2FIT generated. Number of basis functions:   516 

 Convergence thresholds:  THRVAR = 1.00D-08  THRDEN = 1.00D-06

 CCSD(T)     terms to be evaluated (factor= 1.000)


 Number of core orbitals:           4 (   3   1   0   0 )
 Number of closed-shell orbitals:  12 (   5   4   2   1 )
 Number of external orbitals:     214 (  76  54  52  32 )

 Molecular orbitals read from record     2100.2  Type=RHF/CANONICAL (state 1.1)

 MP2-F12 correlation treatment (H.-J. Werner, 2006)
 --------------------------------------------------

 Using MP2-F12 with ansatz 3C(FIX)

 Using projected zeroth-order Hamiltonian (+Z)

 FOCKRIB=T FOCKRIC=T FOCKRIP=T CABSP=T CABSA=T CABSK=T CABSF=T GBC=F EBC=F DMAT=T NOFIK=T NOPAO=1 SOLVE=-1  USEPAO=0
 EXCH_A= T EXCH_B= F EXCH_C= F EXCH_P= F
 
 Geminal basis:    OPTFULL  GEM_TYPE=SLATER  BETA=1.0  NGEM=6

 Optimizing Gaussian exponents for each gem_beta

 Geminal optimization for beta= 1.0000
 Weight function:   m=0, omega= 1.4646

 Augmented Hessian optimization of geminal fit. Trust ratio= 0.40000
 Convergence reached after   2 iterations. Final gradient= 8.24D-16, Step= 4.32D-06, Delta= 1.28D-09
 
 Alpha:                 0.19532     0.81920     2.85917     9.50073    35.69989   197.79328
 Coeff:                 0.27070     0.30552     0.18297     0.10986     0.06810     0.04224
 

 Symmetry turned off. Reference energy:       -263.770754590100

 All pairs explicitly correlated. Number of r12-pairs:           78
 
 AO(A)-basis ORBITAL           loaded. Number of functions:     230
 RI(R)-basis CC-PVTZ/JKFIT     loaded. Number of functions:     376
 DF-basis CC-PVTZ/JKFIT        loaded. Number of functions:     376

 Screening thresholds:   THRAO=  1.00D-10  THRMO=  1.00D-09  THRPROD=  1.00D-09
                         THRSW=  1.00D-05  THROV=  1.00D-12  THRF12=   1.00D-08

 CPU time for Fock operators                      0.98 sec
 
 Construction of ABS:
 Smallest eigenvalue of S          2.57E-04  (threshold= 1.00E-08)
 Ratio eigmin/eigmax               1.83E-06  (threshold= 1.00E-09)
 Smallest eigenvalue of S kept     2.57E-04  (threshold= 2.57E-04, 0 functions deleted, 376 kept)
 
 Construction of CABS:
 Smallest eigenvalue of S          2.29E-08  (threshold= 1.00E-08)
 Ratio eigmin/eigmax               2.29E-08  (threshold= 1.00E-09)
 Smallest eigenvalue of S kept     2.29E-08  (threshold= 2.29E-08, 0 functions deleted, 376 kept)
 
 CPU time for CABS singles                        0.17 sec

 CABS-singles contribution of  -0.01592428 patched into reference energy.
 New reference energy        -263.78667887
 
 AO(A)-basis ORBITAL           loaded. Number of functions:     230
 RI(R)-basis CC-PVTZ/JKFIT     loaded. Number of functions:     376
 DF-basis AUG-CC-PVTZ/MP2FIT   loaded. Number of functions:     516

 Screening thresholds:   THRAO=  1.00D-10  THRMO=  1.00D-09  THRPROD=  1.00D-09
                         THRSW=  1.00D-05  THROV=  1.00D-12  THRF12=   1.00D-08

 CPU time for 3-index integral evaluation         2.74 sec
 CPU time for first  half transformation          0.28 sec ( 9970.9 MFLOP/sec)
 CPU time for second half transformation          0.03 sec ( 3579.9 MFLOP/sec)
 CPU time for sorting                             0.14 sec
 CPU time for fitting                             0.05 sec (27861.0 MFLOP/sec)
 CPU time for tilde quantities                    0.04 sec (46222.0 MFLOP/sec)
 CPU time for assembly                            0.79 sec (29753.1 MFLOP/sec)
 CPU time for tranop_f12                          0.90 sec (33543.1 MFLOP/sec)
 CPU time for f12 integrals (total)               7.03 sec
 F12-matrices built in  3 passes.
 F12-matrices built in  3 passes.
 F12-matrices built in  3 passes.
 F12-matrices built in  3 passes.
 FC-matrix built in  3 passes.
 CPU time for f12 matrices (total)                0.47 sec

 Diagonal F12 approximation with fixed coefficients:  TSING= 0.500,  TTRIP= 0.250 (scaled by -1/beta)

 DF-MP2-F12 energy corrections:
 ------------------------------
 Approx.                                    Singlet             Triplet             Total
 DF-MP2-F12/3*C(DX,FIX)                -0.097404042050     -0.016933154545     -0.114337196595
 DF-MP2-F12/3*C(FIX)                   -0.079829171884     -0.013399951689     -0.093229123573
 DF-MP2-F12/3C(FIX)                    -0.080192255596     -0.013425578444     -0.093617834041

 DF-MP2-F12 correlation energies:
 --------------------------------
 Approx.                                    Singlet             Triplet             Ecorr            Total Energy
 DF-MP2                                -0.537730017155     -0.343274270162     -0.881004287318   -264.667683159301
 DF-MP2-F12/3*C(DX,FIX)                -0.635134059205     -0.360207424707     -0.995341483912   -264.782020355896
 DF-MP2-F12/3*C(FIX)                   -0.617559189039     -0.356674221851     -0.974233410891   -264.760912282874
 DF-MP2-F12/3C(FIX)                    -0.617922272752     -0.356699848606     -0.974622121358   -264.761300993342

 SCS-DF-MP2 energies (F_SING= 1.20000  F_TRIP= 0.62222  F_PARALLEL= 0.33333):
 ----------------------------------------------------------------------------
 SCS-DF-MP2                            -0.858868899798   -264.645547771782
 SCS-DF-MP2-F12/3*C(DX,FIX)            -0.986289935308   -264.772968807292
 SCS-DF-MP2-F12/3*C(FIX)               -0.963001653777   -264.749680525761
 SCS-DF-MP2-F12/3C(FIX)                -0.963453299768   -264.750132171752

 Symmetry restored.
 Symmetry transformation completed.

 Number of N-1 electron functions:              12
 Number of N-2 electron functions:              78
 Number of singly external CSFs:               732
 Number of doubly external CSFs:            836016
 Total number of CSFs:                      836749

 Pair and operator lists are different

 Length of J-op  integral file:             462.26 MB
 Length of K-op  integral file:             502.03 MB
 Length of 3-ext integral record:             0.00 MB

 Memory could be reduced to 38.69 Mwords without degradation in triples

 Integral transformation finished. Total CPU:   1.38 sec, npass=  1  Memory used:   6.07 MW

 Reference energy:                   -263.78667887

 Adding F12 terms to K(Cij), methodcc=6,  factor=1.0

 ITER.      SQ.NORM     CORR.ENERGY   TOTAL ENERGY   ENERGY CHANGE        DEN1      VAR(S)    VAR(P)  DIIS     TIME
   1      1.20214482    -0.86295955  -264.64963842     0.01806038     0.04665477  0.72D-02  0.56D-02  1  1    11.34
   2      1.21645505    -0.85875483  -264.64543370     0.00420472    -0.02013896  0.87D-04  0.59D-03  2  2    12.32
   3      1.22182462    -0.85885617  -264.64553505    -0.00010134    -0.00236638  0.13D-03  0.32D-04  3  3    13.30
   4      1.22463278    -0.85872872  -264.64540759     0.00012745    -0.00141277  0.76D-05  0.41D-05  4  4    14.30
   5      1.22566480    -0.85869119  -264.64537007     0.00003753    -0.00036626  0.56D-06  0.28D-06  5  5    15.27
   6      1.22582745    -0.85866430  -264.64534317     0.00002690    -0.00000807  0.40D-07  0.24D-07  6  6    16.23
   7      1.22585698    -0.85866187  -264.64534075     0.00000242    -0.00000624  0.26D-08  0.40D-08  6  4    17.17
   8      1.22585734    -0.85866138  -264.64534025     0.00000050     0.00000193  0.40D-09  0.27D-09  6  1    18.12
   9      1.22585796    -0.85866144  -264.64534031    -0.00000007     0.00000056  0.27D-10  0.22D-10  6  2    19.11

 Norm of t1 vector:      0.10606518      S-energy:    -0.00000003      T1 diagnostic:  0.01530919
                                                                       D1 diagnostic:  0.04512366

 Adding energy correction from Wij-K(Fij), methodcc=6  factor=1.0
 
  CCSD correlation energy              -0.858661442914
  MP2-F12 correction (uncoupled)       -0.092462965897
  C*T doubles correction               -0.001471751200
  f12b correction                       0.015405064355


 Total CPU time for triples:     25.06 sec


 RESULTS
 =======

  Reference energy                   -263.770754590100
  F12 singles correction               -0.015924281884

 F12 singles corrections added to reference energy

  New reference energy               -263.786678871984

  F12a singlet correction              -0.080391591307
  F12a triplet correction              -0.013543125789
  F12a total correction                -0.093934717097

 F12a corrections for ansatz F12/3C(FIX) added to CCSD energy
 
  CCSD-F12a singlet pair energy        -0.641836488732
  CCSD-F12a triplet pair energy        -0.310759638533
  CCSD-F12a correlation energy         -0.952596160011

  Triples (T) contribution             -0.037684435002
  Total correlation energy             -0.990280595013

  CCSD-F12a total energy             -264.739275031995
  CCSD[T]-F12a energy                -264.779500546628
  CCSD-T-F12a energy                 -264.776024224578
 !CCSD(T)-F12a total energy          -264.776959466996

 F12b corrections for ansatz F12/3C(FIX) added to CCSD(T)-F12a energy

  CCSD-F12b singlet pair energy        -0.627655487060
  CCSD-F12b triplet pair energy        -0.309535575849
  CCSD-F12b correlation energy         -0.937191095656

  Triples (T) contribution             -0.037684435002
  Total correlation energy             -0.974875530658

  CCSD-F12b total energy             -264.723869967640
  CCSD[T]-F12b energy                -264.764095482273
  CCSD-T-F12b energy                 -264.760619160223
 !CCSD(T)-F12b total energy          -264.761554402642

 Timing summary (sec):

 STEP                 CPU(USER)    SYS     CPU(TOT)    WALL
 Transformation          1.39      0.24      1.63      1.62
 CCSD iterations         8.71      0.66      9.37      9.36
 Triples                25.06      0.73     25.79     25.78
 MP2-F12                 9.02      1.12     10.14     10.16
 F12b energy             0.60      0.02      0.62      0.62

 Program statistics:

 Available memory in ccsd:                99998934
 Min. memory needed in ccsd:               2244783
 Max. memory used in ccsd:                 3005571
 Max. memory used in cckext:               2769663 (10 integral passes)



 **********************************************************************************************************************************
 DATASETS  * FILE   NREC   LENGTH (MB)   RECORD NAMES
              1      20      137.19       500      610      700      900      950      970     1000      129      960     1100   
                                          VAR    BASINP    GEOM    SYMINP    ZMAT    AOBASIS   BASIS     P2S    ABASIS      S 
                                         1400     1410     1200     1210     1080     1600     1650     1700      960(1)  1380   
                                           T        V       H0       H01     AOSYM     SMH    MOLCAS    OPER    ABASIS    JKOP   

              2       5        0.97       700     1000     2100     7360     7350   
                                         GEOM     BASIS     RHF    F12ABS    EF12   

 PROGRAMS   *        TOTAL   CCSD(T)        HF       INT
 CPU TIMES  *        51.55     44.87      1.40      5.21
 REAL TIME  *        55.37 SEC
 DISK USED  *         1.40 GB      
 SF USED    *         1.34 GB      
 GA USED    *         2.40 MB       (max)       0.00 MB       (current)
 **********************************************************************************************************************************

     CCSD(T)-F12        HF-SCF  
   -264.76155440   -263.77075459
 **********************************************************************************************************************************
 Variable memory released
