
 Primary working directories    : /scratch/kee
 Secondary working directories  : /scratch/kee
 Wavefunction directory         : /home/kee/wfu/
 Main file repository           : /scratch/kee/

 ARCHNAME  : Linux/x86_64
 FC        : /opt/intel/composer_xe_2015.0.090/bin/intel64/ifort
 FCVERSION : 15.0.0
 BLASLIB   : -L/opt/intel/mkl/lib/intel64 -lmkl_intel_ilp64 -lmkl_sequential -lmkl_core
 id        : emory

 Nodes     nprocs
 node7        3
 Number of processes for MPI-2 version of Molpro:   nprocs(total)=    4   nprocs(compute)=    3   nprocs(helper)=    1
 ga_uses_ma=false, calling ma_init with nominal heap.
 GA-space will be limited to   8.0 MW (determined by -G option)

 Using customized tuning parameters: mindgm=7; mindgv=32; mindgc=1; mindgr=1; noblas=0; mincuda=1000; minvec=7
 default implementation of scratch files=sf  

 ***,co2h2o
 memory,100,m
 basis avtz
 geomtype = xyz
 geometry = {
 6
       0.00000000
 O     0.00351000    1.16210700    0.00000000
 O     0.00351000   -1.16210700    0.00000000
 O     4.21968000    0.00000000    0.00000000
 H     4.80589800    0.00000000    0.75853100
 H     4.80589800    0.00000000   -0.75853100
 C     0.01968000    0.00000000    0.00000000
 }
 hf
 ccsd(t)-f12
 ---

 Variables initialized (665), CPU time= 0.00 sec
 Commands  initialized (462), CPU time= 0.01 sec, 486 directives.
 Default parameters read. Elapsed time= 0.03 sec

 Checking input...
 Passed
1


                                         ***  PROGRAM SYSTEM MOLPRO  ***
                         Copyright, University College Cardiff Consultants Limited, 2008

                                    Version 2010.1 linked 9 Dec 2014 15:06:28 


 **********************************************************************************************************************************
 LABEL *   co2h2o                                                                        
 Linux-2.6.32-504.el6.x86_64/node7(x86_64) 64 bit mpp version                            DATE: 12-Dec-16          TIME: 15:00:49  
 **********************************************************************************************************************************

 Patch level:      19
 **********************************************************************************************************************************

 Variable memory set to  100000000 words,  buffer space   230000 words

 SETTING BASIS          =    AVTZ
 SETTING GEOMTYPE       =    XYZ

Geometry recognized as XYZ



 Recomputing integrals since basis changed


 Using spherical harmonics

 Library entry O      S aug-cc-pVTZ          selected for orbital group  1
 Library entry O      P aug-cc-pVTZ          selected for orbital group  1
 Library entry O      D aug-cc-pVTZ          selected for orbital group  1
 Library entry O      F aug-cc-pVTZ          selected for orbital group  1
 Library entry H      S aug-cc-pVTZ          selected for orbital group  2
 Library entry H      P aug-cc-pVTZ          selected for orbital group  2
 Library entry H      D aug-cc-pVTZ          selected for orbital group  2
 Library entry C      S aug-cc-pVTZ          selected for orbital group  3
 Library entry C      P aug-cc-pVTZ          selected for orbital group  3
 Library entry C      D aug-cc-pVTZ          selected for orbital group  3
 Library entry C      F aug-cc-pVTZ          selected for orbital group  3

1PROGRAM * SEWARD (Integral evaluation for generally contracted gaussian basis sets)     Author: Roland Lindh, 1990

 Geometry written to block  1 of record 700


 Point group  C2v 



 ATOMIC COORDINATES

 NR  ATOM    CHARGE       X              Y              Z

   1  O       8.00    0.006632939    2.196063965    0.000000000
   2  O       8.00    0.006632939   -2.196063965    0.000000000
   3  O       8.00    7.974039562    0.000000000    0.000000000
   4  H       1.00    9.081831036    0.000000000    1.433415852
   5  H       1.00    9.081831036    0.000000000   -1.433415852
   6  C       6.00    0.037189810    0.000000000    0.000000000

 Bond lengths in Bohr (Angstrom)

 1-6  2.196276545  2-6  2.196276545  3-4  1.811596797  3-5  1.811596797
     (1.162219492)     (1.162219492)     (0.958655737)     (0.958655737)

 Bond angles

  1-6-2  178.40563223   4-3-5  104.60391356

 NUCLEAR CHARGE:                   32
 NUMBER OF PRIMITIVE AOS:         322
 NUMBER OF SYMMETRY AOS:          282
 NUMBER OF CONTRACTIONS:          230   (  84A1  +  59B1  +  54B2  +  33A2  )
 NUMBER OF CORE ORBITALS:           4   (   3A1  +   1B1  +   0B2  +   0A2  )
 NUMBER OF VALENCE ORBITALS:       18   (   8A1  +   5B1  +   4B2  +   1A2  )


 NUCLEAR REPULSION ENERGY   93.69619843


 Eigenvalues of metric

         1 0.357E-03 0.367E-03 0.895E-03 0.161E-02 0.292E-02 0.320E-02 0.365E-02 0.418E-02
         2 0.348E-03 0.917E-03 0.175E-02 0.327E-02 0.544E-02 0.736E-02 0.164E-01 0.208E-01
         3 0.389E-03 0.164E-02 0.317E-02 0.459E-02 0.620E-02 0.962E-02 0.135E-01 0.149E-01
         4 0.348E-02 0.124E-01 0.296E-01 0.362E-01 0.559E-01 0.680E-01 0.110E+00 0.140E+00


 Contracted 2-electron integrals neglected if value below      1.0D-11
 AO integral compression algorithm  1   Integral accuracy      1.0D-11

     300.679 MB (compressed) written to integral file ( 33.7%)

     Node minimum: 89.915 MB, node maximum: 112.984 MB


 NUMBER OF SORTED TWO-ELECTRON INTEGRALS:   29979201.     BUFFER LENGTH:  32768
 NUMBER OF SEGMENTS:   2  SEGMENT LENGTH:   15996954      RECORD LENGTH: 524288

 Memory used in sort:      16.55 MW

 SORT1 READ   111555100. AND WROTE    21580816. INTEGRALS IN     62 RECORDS. CPU TIME:     2.29 SEC, REAL TIME:     2.56 SEC
 SORT2 READ    64961987. AND WROTE    89930217. INTEGRALS IN   1293 RECORDS. CPU TIME:     0.64 SEC, REAL TIME:     0.84 SEC

 Node minimum:    29974277.  Node maximum:    29979201. integrals

 OPERATOR DM      FOR CENTER  0  COORDINATES:    0.000000    0.000000    0.000000


 **********************************************************************************************************************************
 DATASETS  * FILE   NREC   LENGTH (MB)   RECORD NAMES
              1      18        3.23       500      610      700      900      950      970     1000      129      960     1100   
                                          VAR    BASINP    GEOM    SYMINP    ZMAT    AOBASIS   BASIS     P2S    ABASIS      S 
                                         1400     1410     1200     1210     1080     1600     1650     1700   
                                           T        V       H0       H01     AOSYM     SMH    MOLCAS    OPER   

 PROGRAMS   *        TOTAL       INT
 CPU TIMES  *         5.32      5.26
 REAL TIME  *         6.41 SEC
 DISK USED  *         1.07 GB      
 GA USED    *         0.00 MB       (max)       0.00 MB       (current)
 **********************************************************************************************************************************

1PROGRAM * RHF-SCF (CLOSED SHELL)       Authors: W. Meyer, H.-J. Werner


 NUMBER OF ELECTRONS:      16+   16-
 CONVERGENCE THRESHOLDS:    1.00E-05 (Density)    1.00E-07 (Energy)
 MAX. NUMBER OF ITERATIONS:       60
 INTERPOLATION TYPE:            DIIS
 INTERPOLATION STEPS:              2 (START)      1 (STEP)
 LEVEL SHIFTS:                  0.00 (CLOSED)  0.00 (OPEN) 



 Orbital guess generated from atomic densities. Full valence occupancy:   11   6   4   1

 Molecular orbital dump at record        2100.2

 Initial alpha occupancy:   8   5   2   1
 Initial beta  occupancy:   8   5   2   1
 Wave function symmetry:    1

 ITERATION    DDIFF          GRAD             ENERGY        2-EL.EN.            DIPOLE MOMENTS         DIIS
    1      0.000D+00      0.000D+00      -263.66248517    383.368726    1.18133    0.00000    0.00000    0
    2      0.000D+00      0.884D-02      -263.72739433    378.667852    0.74017    0.00000    0.00000    1
    3      0.142D-01      0.598D-02      -263.76985434    381.233488    0.84605    0.00000    0.00000    2
    4      0.583D-02      0.568D-03      -263.77034925    381.028588    0.84911    0.00000    0.00000    3
    5      0.696D-03      0.166D-03      -263.77040743    381.026555    0.84424    0.00000    0.00000    4
    6      0.259D-03      0.673D-04      -263.77041473    381.042019    0.84505    0.00000    0.00000    5
    7      0.863D-04      0.163D-04      -263.77041546    381.033495    0.84463    0.00000    0.00000    6
    8      0.281D-04      0.359D-05      -263.77041551    381.034816    0.84464    0.00000    0.00000    7
    9      0.768D-05      0.121D-05      -263.77041551    381.034605    0.84461    0.00000    0.00000    0

 Final occupancy:   8   5   2   1

 !RHF STATE 1.1 Energy               -263.770415511443
 Nuclear energy                        93.69619843
 One-electron energy                 -547.98391625
 Two-electron energy                  190.51730231
 Virial quotient                       -1.00183752
 !RHF STATE 1.1 Dipole moment           0.84461421     0.00000000     0.00000000
 Dipole moment /Debye                   2.14665458     0.00000000     0.00000000

 Orbital energies:

         1.1          2.1          3.1          4.1          5.1          6.1          7.1          8.1          9.1         10.1
    -20.642302   -20.571299   -11.451405    -1.519959    -1.356760    -0.790564    -0.703742    -0.589077     0.027366     0.059767

         1.2          2.2          3.2          4.2          5.2          6.2          7.2
    -20.642348    -1.466936    -0.732885    -0.533775    -0.514223     0.085786     0.155854

         1.3          2.3          3.3          4.3
     -0.721198    -0.704212     0.045961     0.084893

         1.4          2.4          3.4
     -0.533972     0.169459     0.265066


 **********************************************************************************************************************************
 DATASETS  * FILE   NREC   LENGTH (MB)   RECORD NAMES
              1      18        3.25       500      610      700      900      950      970     1000      129      960     1100   
                                          VAR    BASINP    GEOM    SYMINP    ZMAT    AOBASIS   BASIS     P2S    ABASIS      S 
                                         1400     1410     1200     1210     1080     1600     1650     1700   
                                           T        V       H0       H01     AOSYM     SMH    MOLCAS    OPER   

              2       3        0.67       700     1000     2100   
                                         GEOM     BASIS     RHF  

 PROGRAMS   *        TOTAL        HF       INT
 CPU TIMES  *         6.69      1.37      5.26
 REAL TIME  *         7.89 SEC
 DISK USED  *         1.09 GB      
 SF USED    *         0.06 MB      
 GA USED    *         0.00 MB       (max)       0.00 MB       (current)
 **********************************************************************************************************************************


1PROGRAM * CCSD (Closed-shell coupled cluster)     Authors: C. Hampel, H.-J. Werner, 1991, M. Deegan, P.J. Knowles, 1992

                                  CCSD-F12 implementation by  H.-J. Werner, 2007

                   Density fitting integral evaluation by F.R. Manby, 2003,2007, G. Knizia, 2010

 Basis set CC-PVTZ/JKFIT generated.      Number of basis functions:   376 
 Basis set AUG-CC-PVTZ/MP2FIT generated. Number of basis functions:   516 

 Convergence thresholds:  THRVAR = 1.00D-08  THRDEN = 1.00D-06

 CCSD(T)     terms to be evaluated (factor= 1.000)


 Number of core orbitals:           4 (   3   1   0   0 )
 Number of closed-shell orbitals:  12 (   5   4   2   1 )
 Number of external orbitals:     214 (  76  54  52  32 )

 Molecular orbitals read from record     2100.2  Type=RHF/CANONICAL (state 1.1)

 MP2-F12 correlation treatment (H.-J. Werner, 2006)
 --------------------------------------------------

 Using MP2-F12 with ansatz 3C(FIX)

 Using projected zeroth-order Hamiltonian (+Z)

 FOCKRIB=T FOCKRIC=T FOCKRIP=T CABSP=T CABSA=T CABSK=T CABSF=T GBC=F EBC=F DMAT=T NOFIK=T NOPAO=1 SOLVE=-1  USEPAO=0
 EXCH_A= T EXCH_B= F EXCH_C= F EXCH_P= F
 
 Geminal basis:    OPTFULL  GEM_TYPE=SLATER  BETA=1.0  NGEM=6

 Optimizing Gaussian exponents for each gem_beta

 Geminal optimization for beta= 1.0000
 Weight function:   m=0, omega= 1.4646

 Augmented Hessian optimization of geminal fit. Trust ratio= 0.40000
 Convergence reached after   2 iterations. Final gradient= 8.24D-16, Step= 4.32D-06, Delta= 1.28D-09
 
 Alpha:                 0.19532     0.81920     2.85917     9.50073    35.69989   197.79328
 Coeff:                 0.27070     0.30552     0.18297     0.10986     0.06810     0.04224
 

 Symmetry turned off. Reference energy:       -263.770415511443

 All pairs explicitly correlated. Number of r12-pairs:           78
 
 AO(A)-basis ORBITAL           loaded. Number of functions:     230
 RI(R)-basis CC-PVTZ/JKFIT     loaded. Number of functions:     376
 DF-basis CC-PVTZ/JKFIT        loaded. Number of functions:     376

 Screening thresholds:   THRAO=  1.00D-10  THRMO=  1.00D-09  THRPROD=  1.00D-09
                         THRSW=  1.00D-05  THROV=  1.00D-12  THRF12=   1.00D-08

 CPU time for Fock operators                      0.97 sec
 
 Construction of ABS:
 Smallest eigenvalue of S          2.57E-04  (threshold= 1.00E-08)
 Ratio eigmin/eigmax               1.83E-06  (threshold= 1.00E-09)
 Smallest eigenvalue of S kept     2.57E-04  (threshold= 2.57E-04, 0 functions deleted, 376 kept)
 
 Construction of CABS:
 Smallest eigenvalue of S          2.29E-08  (threshold= 1.00E-08)
 Ratio eigmin/eigmax               2.29E-08  (threshold= 1.00E-09)
 Smallest eigenvalue of S kept     2.29E-08  (threshold= 2.29E-08, 0 functions deleted, 376 kept)
 
 CPU time for CABS singles                        0.17 sec

 CABS-singles contribution of  -0.01592288 patched into reference energy.
 New reference energy        -263.78633839
 
 AO(A)-basis ORBITAL           loaded. Number of functions:     230
 RI(R)-basis CC-PVTZ/JKFIT     loaded. Number of functions:     376
 DF-basis AUG-CC-PVTZ/MP2FIT   loaded. Number of functions:     516

 Screening thresholds:   THRAO=  1.00D-10  THRMO=  1.00D-09  THRPROD=  1.00D-09
                         THRSW=  1.00D-05  THROV=  1.00D-12  THRF12=   1.00D-08

 CPU time for 3-index integral evaluation         2.76 sec
 CPU time for first  half transformation          0.23 sec (13630.1 MFLOP/sec)
 CPU time for sorting                             0.14 sec
 CPU time for fitting                             0.04 sec (34826.3 MFLOP/sec)
 CPU time for tilde quantities                    0.09 sec (20543.1 MFLOP/sec)
 CPU time for assembly                            0.86 sec (28419.5 MFLOP/sec)
 CPU time for tranop_f12                          0.90 sec (32609.5 MFLOP/sec)
 CPU time for f12 integrals (total)               7.11 sec
 F12-matrices built in  3 passes.
 F12-matrices built in  3 passes.
 F12-matrices built in  3 passes.
 F12-matrices built in  3 passes.
 FC-matrix built in  3 passes.
 CPU time for f12 matrices (total)                0.53 sec

 Diagonal F12 approximation with fixed coefficients:  TSING= 0.500,  TTRIP= 0.250 (scaled by -1/beta)

 DF-MP2-F12 energy corrections:
 ------------------------------
 Approx.                                    Singlet             Triplet             Total
 DF-MP2-F12/3*C(DX,FIX)                -0.097418762812     -0.016930984299     -0.114349747111
 DF-MP2-F12/3*C(FIX)                   -0.079841124981     -0.013395296032     -0.093236421013
 DF-MP2-F12/3C(FIX)                    -0.080203666702     -0.013419981863     -0.093623648565

 DF-MP2-F12 correlation energies:
 --------------------------------
 Approx.                                    Singlet             Triplet             Ecorr            Total Energy
 DF-MP2                                -0.537716137688     -0.343177417438     -0.880893555126   -264.667231941795
 DF-MP2-F12/3*C(DX,FIX)                -0.635134900500     -0.360108401737     -0.995243302237   -264.781581688906
 DF-MP2-F12/3*C(FIX)                   -0.617557262670     -0.356572713469     -0.974129976139   -264.760468362808
 DF-MP2-F12/3C(FIX)                    -0.617919804391     -0.356597399300     -0.974517203691   -264.760855590360

 SCS-DF-MP2 energies (F_SING= 1.20000  F_TRIP= 0.62222  F_PARALLEL= 0.33333):
 ----------------------------------------------------------------------------
 SCS-DF-MP2                            -0.858791980521   -264.645130367190
 SCS-DF-MP2-F12/3*C(DX,FIX)            -0.986229330570   -264.772567717239
 SCS-DF-MP2-F12/3*C(FIX)               -0.962936181363   -264.749274568032
 SCS-DF-MP2-F12/3C(FIX)                -0.963386591500   -264.749724978169

 Symmetry restored.
 Symmetry transformation completed.

 Number of N-1 electron functions:              12
 Number of N-2 electron functions:              78
 Number of singly external CSFs:               732
 Number of doubly external CSFs:            836016
 Total number of CSFs:                      836749

 Pair and operator lists are different

 Length of J-op  integral file:             462.26 MB
 Length of K-op  integral file:             502.03 MB
 Length of 3-ext integral record:             0.00 MB

 Memory could be reduced to 38.69 Mwords without degradation in triples

 Integral transformation finished. Total CPU:   1.62 sec, npass=  1  Memory used:   6.07 MW

 Reference energy:                   -263.78633839

 Adding F12 terms to K(Cij), methodcc=6,  factor=1.0

 ITER.      SQ.NORM     CORR.ENERGY   TOTAL ENERGY   ENERGY CHANGE        DEN1      VAR(S)    VAR(P)  DIIS     TIME
   1      1.20213483    -0.86285206  -264.64919045     0.01805741     0.04665978  0.72D-02  0.56D-02  1  1    11.71
   2      1.21644304    -0.85864132  -264.64497970     0.00421074    -0.02013982  0.87D-04  0.59D-03  2  2    12.66
   3      1.22180983    -0.85874113  -264.64507952    -0.00009982    -0.00236642  0.13D-03  0.32D-04  3  3    13.63
   4      1.22461582    -0.85861366  -264.64495204     0.00012748    -0.00141223  0.76D-05  0.41D-05  4  4    14.59
   5      1.22564714    -0.85857607  -264.64491446     0.00003759    -0.00036628  0.56D-06  0.29D-06  5  5    15.58
   6      1.22580960    -0.85854918  -264.64488757     0.00002689    -0.00000807  0.40D-07  0.24D-07  6  6    16.56
   7      1.22583905    -0.85854677  -264.64488515     0.00000242    -0.00000623  0.26D-08  0.40D-08  6  4    17.55
   8      1.22583938    -0.85854627  -264.64488466     0.00000049     0.00000194  0.39D-09  0.27D-09  6  1    18.53
   9      1.22583999    -0.85854634  -264.64488473    -0.00000007     0.00000056  0.26D-10  0.22D-10  6  2    19.51

 Norm of t1 vector:      0.10602283      S-energy:    -0.00000003      T1 diagnostic:  0.01530308
                                                                       D1 diagnostic:  0.04506141

 Adding energy correction from Wij-K(Fij), methodcc=6  factor=1.0
 
  CCSD correlation energy              -0.858546338585
  MP2-F12 correction (uncoupled)       -0.092467497928
  C*T doubles correction               -0.001473097843
  f12b correction                       0.015405182021


 Total CPU time for triples:     34.04 sec


 RESULTS
 =======

  Reference energy                   -263.770415511443
  F12 singles correction               -0.015922875226

 F12 singles corrections added to reference energy

  New reference energy               -263.786338386669

  F12a singlet correction              -0.080402662729
  F12a triplet correction              -0.013537933042
  F12a total correction                -0.093940595771

 F12a corrections for ansatz F12/3C(FIX) added to CCSD energy
 
  CCSD-F12a singlet pair energy        -0.641845641778
  CCSD-F12a triplet pair energy        -0.310641262172
  CCSD-F12a correlation energy         -0.952486934357

  Triples (T) contribution             -0.037661631577
  Total correlation energy             -0.990148565934

  CCSD-F12a total energy             -264.738825321026
  CCSD[T]-F12a energy                -264.779028204940
  CCSD-T-F12a energy                 -264.775551189618
 !CCSD(T)-F12a total energy          -264.776486952603

 F12b corrections for ansatz F12/3C(FIX) added to CCSD(T)-F12a energy

  CCSD-F12b singlet pair energy        -0.627664046973
  CCSD-F12b triplet pair energy        -0.309417674957
  CCSD-F12b correlation energy         -0.937081752336

  Triples (T) contribution             -0.037661631577
  Total correlation energy             -0.974743383913

  CCSD-F12b total energy             -264.723420139005
  CCSD[T]-F12b energy                -264.763623022919
  CCSD-T-F12b energy                 -264.760146007597
 !CCSD(T)-F12b total energy          -264.761081770582

 Timing summary (sec):

 STEP                 CPU(USER)    SYS     CPU(TOT)    WALL
 Transformation          1.63      0.20      1.83      1.84
 CCSD iterations         8.72      0.66      9.38      9.37
 Triples                34.04      0.94     34.98     34.97
 MP2-F12                 9.17      1.10     10.27     10.27
 F12b energy             0.59      0.01      0.60      0.60

 Program statistics:

 Available memory in ccsd:                99998934
 Min. memory needed in ccsd:               2244783
 Max. memory used in ccsd:                 3005571
 Max. memory used in cckext:               2769663 (10 integral passes)



 **********************************************************************************************************************************
 DATASETS  * FILE   NREC   LENGTH (MB)   RECORD NAMES
              1      20      137.19       500      610      700      900      950      970     1000      129      960     1100   
                                          VAR    BASINP    GEOM    SYMINP    ZMAT    AOBASIS   BASIS     P2S    ABASIS      S 
                                         1400     1410     1200     1210     1080     1600     1650     1700      960(1)  1380   
                                           T        V       H0       H01     AOSYM     SMH    MOLCAS    OPER    ABASIS    JKOP   

              2       5        0.97       700     1000     2100     7360     7350   
                                         GEOM     BASIS     RHF    F12ABS    EF12   

 PROGRAMS   *        TOTAL   CCSD(T)        HF       INT
 CPU TIMES  *        60.86     54.17      1.37      5.26
 REAL TIME  *        65.19 SEC
 DISK USED  *         1.31 GB      
 SF USED    *         1.34 GB      
 GA USED    *         2.40 MB       (max)       0.00 MB       (current)
 **********************************************************************************************************************************

     CCSD(T)-F12        HF-SCF  
   -264.76108177   -263.77041551
 **********************************************************************************************************************************
 Variable memory released
