
 Primary working directories    : /scratch/kee
 Secondary working directories  : /scratch/kee
 Wavefunction directory         : /home/kee/wfu/
 Main file repository           : /scratch/kee/

 ARCHNAME  : Linux/x86_64
 FC        : /opt/intel/composer_xe_2015.0.090/bin/intel64/ifort
 FCVERSION : 15.0.0
 BLASLIB   : -L/opt/intel/mkl/lib/intel64 -lmkl_intel_ilp64 -lmkl_sequential -lmkl_core
 id        : emory

 Nodes     nprocs
 node7        3
 Number of processes for MPI-2 version of Molpro:   nprocs(total)=    4   nprocs(compute)=    3   nprocs(helper)=    1
 ga_uses_ma=false, calling ma_init with nominal heap.
 GA-space will be limited to   8.0 MW (determined by -G option)

 Using customized tuning parameters: mindgm=7; mindgv=32; mindgc=1; mindgr=1; noblas=0; mincuda=1000; minvec=7
 default implementation of scratch files=sf  

 ***,co2h2o
 memory,100,m
 basis avtz
 geomtype = xyz
 geometry = {
 6
       0.00000000
 O     0.00351000    1.16210700    0.00000000
 O     0.00351000   -1.16210700    0.00000000
 O     3.61968000    0.00000000    0.00000000
 H     4.20589800    0.00000000    0.75853100
 H     4.20589800    0.00000000   -0.75853100
 C     0.01968000    0.00000000    0.00000000
 }
 hf
 ccsd(t)-f12
 ---

 Variables initialized (665), CPU time= 0.01 sec
 Commands  initialized (462), CPU time= 0.00 sec, 486 directives.
 Default parameters read. Elapsed time= 0.04 sec

 Checking input...
 Passed
1


                                         ***  PROGRAM SYSTEM MOLPRO  ***
                         Copyright, University College Cardiff Consultants Limited, 2008

                                    Version 2010.1 linked 9 Dec 2014 15:06:28 


 **********************************************************************************************************************************
 LABEL *   co2h2o                                                                        
 Linux-2.6.32-504.el6.x86_64/node7(x86_64) 64 bit mpp version                            DATE: 12-Dec-16          TIME: 14:49:09  
 **********************************************************************************************************************************

 Patch level:      19
 **********************************************************************************************************************************

 Variable memory set to  100000000 words,  buffer space   230000 words

 SETTING BASIS          =    AVTZ
 SETTING GEOMTYPE       =    XYZ

Geometry recognized as XYZ



 Recomputing integrals since basis changed


 Using spherical harmonics

 Library entry O      S aug-cc-pVTZ          selected for orbital group  1
 Library entry O      P aug-cc-pVTZ          selected for orbital group  1
 Library entry O      D aug-cc-pVTZ          selected for orbital group  1
 Library entry O      F aug-cc-pVTZ          selected for orbital group  1
 Library entry H      S aug-cc-pVTZ          selected for orbital group  2
 Library entry H      P aug-cc-pVTZ          selected for orbital group  2
 Library entry H      D aug-cc-pVTZ          selected for orbital group  2
 Library entry C      S aug-cc-pVTZ          selected for orbital group  3
 Library entry C      P aug-cc-pVTZ          selected for orbital group  3
 Library entry C      D aug-cc-pVTZ          selected for orbital group  3
 Library entry C      F aug-cc-pVTZ          selected for orbital group  3

1PROGRAM * SEWARD (Integral evaluation for generally contracted gaussian basis sets)     Author: Roland Lindh, 1990

 Geometry written to block  1 of record 700


 Point group  C2v 



 ATOMIC COORDINATES

 NR  ATOM    CHARGE       X              Y              Z

   1  O       8.00    0.006632939    2.196063965    0.000000000
   2  O       8.00    0.006632939   -2.196063965    0.000000000
   3  O       8.00    6.840203883    0.000000000    0.000000000
   4  H       1.00    7.947995357    0.000000000    1.433415852
   5  H       1.00    7.947995357    0.000000000   -1.433415852
   6  C       6.00    0.037189810    0.000000000    0.000000000

 Bond lengths in Bohr (Angstrom)

 1-6  2.196276545  2-6  2.196276545  3-4  1.811596797  3-5  1.811596797
     (1.162219492)     (1.162219492)     (0.958655737)     (0.958655737)

 Bond angles

  1-6-2  178.40563223   4-3-5  104.60391356

 NUCLEAR CHARGE:                   32
 NUMBER OF PRIMITIVE AOS:         322
 NUMBER OF SYMMETRY AOS:          282
 NUMBER OF CONTRACTIONS:          230   (  84A1  +  59B1  +  54B2  +  33A2  )
 NUMBER OF CORE ORBITALS:           4   (   3A1  +   1B1  +   0B2  +   0A2  )
 NUMBER OF VALENCE ORBITALS:       18   (   8A1  +   5B1  +   4B2  +   1A2  )


 NUCLEAR REPULSION ENERGY   97.67011086


 Eigenvalues of metric

         1 0.325E-03 0.377E-03 0.890E-03 0.148E-02 0.244E-02 0.318E-02 0.331E-02 0.399E-02
         2 0.347E-03 0.888E-03 0.174E-02 0.318E-02 0.511E-02 0.708E-02 0.153E-01 0.208E-01
         3 0.380E-03 0.162E-02 0.315E-02 0.427E-02 0.618E-02 0.905E-02 0.133E-01 0.145E-01
         4 0.347E-02 0.124E-01 0.296E-01 0.362E-01 0.556E-01 0.681E-01 0.108E+00 0.140E+00


 Contracted 2-electron integrals neglected if value below      1.0D-11
 AO integral compression algorithm  1   Integral accuracy      1.0D-11

     341.574 MB (compressed) written to integral file ( 38.3%)

     Node minimum: 104.333 MB, node maximum: 124.781 MB


 NUMBER OF SORTED TWO-ELECTRON INTEGRALS:   29979201.     BUFFER LENGTH:  32768
 NUMBER OF SEGMENTS:   2  SEGMENT LENGTH:   15996954      RECORD LENGTH: 524288

 Memory used in sort:      16.55 MW

 SORT1 READ   111555100. AND WROTE    24342660. INTEGRALS IN     70 RECORDS. CPU TIME:     2.39 SEC, REAL TIME:     2.67 SEC
 SORT2 READ    73212715. AND WROTE    89930217. INTEGRALS IN   1428 RECORDS. CPU TIME:     0.66 SEC, REAL TIME:     0.89 SEC

 Node minimum:    29974277.  Node maximum:    29979201. integrals

 OPERATOR DM      FOR CENTER  0  COORDINATES:    0.000000    0.000000    0.000000


 **********************************************************************************************************************************
 DATASETS  * FILE   NREC   LENGTH (MB)   RECORD NAMES
              1      18        3.23       500      610      700      900      950      970     1000      129      960     1100   
                                          VAR    BASINP    GEOM    SYMINP    ZMAT    AOBASIS   BASIS     P2S    ABASIS      S 
                                         1400     1410     1200     1210     1080     1600     1650     1700   
                                           T        V       H0       H01     AOSYM     SMH    MOLCAS    OPER   

 PROGRAMS   *        TOTAL       INT
 CPU TIMES  *         5.34      5.27
 REAL TIME  *         5.97 SEC
 DISK USED  *         1.21 GB      
 GA USED    *         0.00 MB       (max)       0.00 MB       (current)
 **********************************************************************************************************************************

1PROGRAM * RHF-SCF (CLOSED SHELL)       Authors: W. Meyer, H.-J. Werner


 NUMBER OF ELECTRONS:      16+   16-
 CONVERGENCE THRESHOLDS:    1.00E-05 (Density)    1.00E-07 (Energy)
 MAX. NUMBER OF ITERATIONS:       60
 INTERPOLATION TYPE:            DIIS
 INTERPOLATION STEPS:              2 (START)      1 (STEP)
 LEVEL SHIFTS:                  0.00 (CLOSED)  0.00 (OPEN) 



 Orbital guess generated from atomic densities. Full valence occupancy:   11   6   4   1

 Molecular orbital dump at record        2100.2

 Initial alpha occupancy:   8   5   2   1
 Initial beta  occupancy:   8   5   2   1
 Wave function symmetry:    1

 ITERATION    DDIFF          GRAD             ENERGY        2-EL.EN.            DIPOLE MOMENTS         DIIS
    1      0.000D+00      0.000D+00      -263.66410046    391.468604    1.18455    0.00000    0.00000    0
    2      0.000D+00      0.881D-02      -263.72868936    386.741540    0.77590    0.00000    0.00000    1
    3      0.142D-01      0.593D-02      -263.77048794    389.292506    0.87085    0.00000    0.00000    2
    4      0.579D-02      0.569D-03      -263.77098280    389.093440    0.87347    0.00000    0.00000    3
    5      0.697D-03      0.167D-03      -263.77104109    389.088496    0.86886    0.00000    0.00000    4
    6      0.260D-03      0.678D-04      -263.77104850    389.104610    0.86971    0.00000    0.00000    5
    7      0.867D-04      0.162D-04      -263.77104924    389.096027    0.86931    0.00000    0.00000    6
    8      0.283D-04      0.358D-05      -263.77104928    389.097364    0.86933    0.00000    0.00000    7
    9      0.766D-05      0.120D-05      -263.77104929    389.097143    0.86930    0.00000    0.00000    0

 Final occupancy:   8   5   2   1

 !RHF STATE 1.1 Energy               -263.771049285896
 Nuclear energy                        97.67011086
 One-electron energy                 -555.98973165
 Two-electron energy                  194.54857150
 Virial quotient                       -1.00183985
 !RHF STATE 1.1 Dipole moment           0.86930164     0.00000000     0.00000000
 Dipole moment /Debye                   2.20939965     0.00000000     0.00000000

 Orbital energies:

         1.1          2.1          3.1          4.1          5.1          6.1          7.1          8.1          9.1         10.1
    -20.638556   -20.573366   -11.447885    -1.516240    -1.358960    -0.787091    -0.700006    -0.591747     0.026585     0.061992

         1.2          2.2          3.2          4.2          5.2          6.2          7.2
    -20.638602    -1.463261    -0.729470    -0.530409    -0.516230     0.086479     0.161648

         1.3          2.3          3.3          4.3
     -0.723380    -0.700631     0.045739     0.087183

         1.4          2.4          3.4
     -0.530461     0.169763     0.266808


 **********************************************************************************************************************************
 DATASETS  * FILE   NREC   LENGTH (MB)   RECORD NAMES
              1      18        3.25       500      610      700      900      950      970     1000      129      960     1100   
                                          VAR    BASINP    GEOM    SYMINP    ZMAT    AOBASIS   BASIS     P2S    ABASIS      S 
                                         1400     1410     1200     1210     1080     1600     1650     1700   
                                           T        V       H0       H01     AOSYM     SMH    MOLCAS    OPER   

              2       3        0.67       700     1000     2100   
                                         GEOM     BASIS     RHF  

 PROGRAMS   *        TOTAL        HF       INT
 CPU TIMES  *         6.72      1.38      5.27
 REAL TIME  *         7.47 SEC
 DISK USED  *         1.22 GB      
 SF USED    *         0.06 MB      
 GA USED    *         0.00 MB       (max)       0.00 MB       (current)
 **********************************************************************************************************************************


1PROGRAM * CCSD (Closed-shell coupled cluster)     Authors: C. Hampel, H.-J. Werner, 1991, M. Deegan, P.J. Knowles, 1992

                                  CCSD-F12 implementation by  H.-J. Werner, 2007

                   Density fitting integral evaluation by F.R. Manby, 2003,2007, G. Knizia, 2010

 Basis set CC-PVTZ/JKFIT generated.      Number of basis functions:   376 
 Basis set AUG-CC-PVTZ/MP2FIT generated. Number of basis functions:   516 

 Convergence thresholds:  THRVAR = 1.00D-08  THRDEN = 1.00D-06

 CCSD(T)     terms to be evaluated (factor= 1.000)


 Number of core orbitals:           4 (   3   1   0   0 )
 Number of closed-shell orbitals:  12 (   5   4   2   1 )
 Number of external orbitals:     214 (  76  54  52  32 )

 Molecular orbitals read from record     2100.2  Type=RHF/CANONICAL (state 1.1)

 MP2-F12 correlation treatment (H.-J. Werner, 2006)
 --------------------------------------------------

 Using MP2-F12 with ansatz 3C(FIX)

 Using projected zeroth-order Hamiltonian (+Z)

 FOCKRIB=T FOCKRIC=T FOCKRIP=T CABSP=T CABSA=T CABSK=T CABSF=T GBC=F EBC=F DMAT=T NOFIK=T NOPAO=1 SOLVE=-1  USEPAO=0
 EXCH_A= T EXCH_B= F EXCH_C= F EXCH_P= F
 
 Geminal basis:    OPTFULL  GEM_TYPE=SLATER  BETA=1.0  NGEM=6

 Optimizing Gaussian exponents for each gem_beta

 Geminal optimization for beta= 1.0000
 Weight function:   m=0, omega= 1.4646

 Augmented Hessian optimization of geminal fit. Trust ratio= 0.40000
 Convergence reached after   2 iterations. Final gradient= 8.24D-16, Step= 4.32D-06, Delta= 1.28D-09
 
 Alpha:                 0.19532     0.81920     2.85917     9.50073    35.69989   197.79328
 Coeff:                 0.27070     0.30552     0.18297     0.10986     0.06810     0.04224
 

 Symmetry turned off. Reference energy:       -263.771049285895

 All pairs explicitly correlated. Number of r12-pairs:           78
 
 AO(A)-basis ORBITAL           loaded. Number of functions:     230
 RI(R)-basis CC-PVTZ/JKFIT     loaded. Number of functions:     376
 DF-basis CC-PVTZ/JKFIT        loaded. Number of functions:     376

 Screening thresholds:   THRAO=  1.00D-10  THRMO=  1.00D-09  THRPROD=  1.00D-09
                         THRSW=  1.00D-05  THROV=  1.00D-12  THRF12=   1.00D-08

 CPU time for Fock operators                      0.96 sec
 
 Construction of ABS:
 Smallest eigenvalue of S          2.57E-04  (threshold= 1.00E-08)
 Ratio eigmin/eigmax               1.83E-06  (threshold= 1.00E-09)
 Smallest eigenvalue of S kept     2.57E-04  (threshold= 2.57E-04, 0 functions deleted, 376 kept)
 
 Construction of CABS:
 Smallest eigenvalue of S          2.28E-08  (threshold= 1.00E-08)
 Ratio eigmin/eigmax               2.28E-08  (threshold= 1.00E-09)
 Smallest eigenvalue of S kept     2.28E-08  (threshold= 2.28E-08, 0 functions deleted, 376 kept)
 
 CPU time for CABS singles                        0.16 sec

 CABS-singles contribution of  -0.01592585 patched into reference energy.
 New reference energy        -263.78697514
 
 AO(A)-basis ORBITAL           loaded. Number of functions:     230
 RI(R)-basis CC-PVTZ/JKFIT     loaded. Number of functions:     376
 DF-basis AUG-CC-PVTZ/MP2FIT   loaded. Number of functions:     516

 Screening thresholds:   THRAO=  1.00D-10  THRMO=  1.00D-09  THRPROD=  1.00D-09
                         THRSW=  1.00D-05  THROV=  1.00D-12  THRF12=   1.00D-08

 CPU time for 3-index integral evaluation         2.82 sec
 CPU time for first  half transformation          0.29 sec (10081.5 MFLOP/sec)
 CPU time for second half transformation          0.03 sec ( 3703.6 MFLOP/sec)
 CPU time for sorting                             0.16 sec
 CPU time for fitting                             0.03 sec (46435.0 MFLOP/sec)
 CPU time for tilde quantities                    0.08 sec (23111.0 MFLOP/sec)
 CPU time for assembly                            0.75 sec (31503.1 MFLOP/sec)
 CPU time for tranop_f12                          0.92 sec (32549.0 MFLOP/sec)
 CPU time for f12 integrals (total)               7.10 sec
 F12-matrices built in  3 passes.
 F12-matrices built in  3 passes.
 F12-matrices built in  3 passes.
 F12-matrices built in  3 passes.
 FC-matrix built in  3 passes.
 CPU time for f12 matrices (total)                0.52 sec

 Diagonal F12 approximation with fixed coefficients:  TSING= 0.500,  TTRIP= 0.250 (scaled by -1/beta)

 DF-MP2-F12 energy corrections:
 ------------------------------
 Approx.                                    Singlet             Triplet             Total
 DF-MP2-F12/3*C(DX,FIX)                -0.097390306976     -0.016937182258     -0.114327489234
 DF-MP2-F12/3*C(FIX)                   -0.079817968515     -0.013406843559     -0.093224812074
 DF-MP2-F12/3C(FIX)                    -0.080182703384     -0.013433937220     -0.093616640604

 DF-MP2-F12 correlation energies:
 --------------------------------
 Approx.                                    Singlet             Triplet             Ecorr            Total Energy
 DF-MP2                                -0.537750450783     -0.343395578430     -0.881146029213   -264.668121166401
 DF-MP2-F12/3*C(DX,FIX)                -0.635140757758     -0.360332760688     -0.995473518447   -264.782448655634
 DF-MP2-F12/3*C(FIX)                   -0.617568419298     -0.356802421990     -0.974370841287   -264.761345978475
 DF-MP2-F12/3C(FIX)                    -0.617933154166     -0.356829515650     -0.974762669817   -264.761737807004

 SCS-DF-MP2 energies (F_SING= 1.20000  F_TRIP= 0.62222  F_PARALLEL= 0.33333):
 ----------------------------------------------------------------------------
 SCS-DF-MP2                            -0.858968900851   -264.645944038039
 SCS-DF-MP2-F12/3*C(DX,FIX)            -0.986375960405   -264.773351097593
 SCS-DF-MP2-F12/3*C(FIX)               -0.963092499062   -264.750067636250
 SCS-DF-MP2-F12/3C(FIX)                -0.963547039182   -264.750522176369

 Symmetry restored.
 Symmetry transformation completed.

 Number of N-1 electron functions:              12
 Number of N-2 electron functions:              78
 Number of singly external CSFs:               732
 Number of doubly external CSFs:            836016
 Total number of CSFs:                      836749

 Pair and operator lists are different

 Length of J-op  integral file:             462.26 MB
 Length of K-op  integral file:             502.03 MB
 Length of 3-ext integral record:             0.00 MB

 Memory could be reduced to 38.69 Mwords without degradation in triples

 Integral transformation finished. Total CPU:   1.40 sec, npass=  1  Memory used:   6.07 MW

 Reference energy:                   -263.78697514

 Adding F12 terms to K(Cij), methodcc=6,  factor=1.0

 ITER.      SQ.NORM     CORR.ENERGY   TOTAL ENERGY   ENERGY CHANGE        DEN1      VAR(S)    VAR(P)  DIIS     TIME
   1      1.20215711    -0.86309661  -264.65007175     0.01806475     0.04665225  0.72D-02  0.55D-02  1  1    11.40
   2      1.21647125    -0.85889801  -264.64587315     0.00419860    -0.02014126  0.87D-04  0.59D-03  2  2    12.35
   3      1.22184240    -0.85900108  -264.64597621    -0.00010307    -0.00236455  0.13D-03  0.32D-04  3  3    13.31
   4      1.22465255    -0.85887356  -264.64584870     0.00012751    -0.00141326  0.77D-05  0.41D-05  4  4    14.24
   5      1.22568529    -0.85883611  -264.64581125     0.00003745    -0.00036619  0.56D-06  0.28D-06  5  5    15.19
   6      1.22584817    -0.85880920  -264.64578434     0.00002691    -0.00000809  0.41D-07  0.24D-07  6  6    16.15
   7      1.22587783    -0.85880677  -264.64578191     0.00000243    -0.00000625  0.27D-08  0.40D-08  6  4    17.11
   8      1.22587825    -0.85880627  -264.64578141     0.00000050     0.00000191  0.40D-09  0.28D-09  6  1    18.09
   9      1.22587886    -0.85880634  -264.64578147    -0.00000007     0.00000057  0.28D-10  0.23D-10  6  2    19.07

 Norm of t1 vector:      0.10611427      S-energy:    -0.00000004      T1 diagnostic:  0.01531628
                                                                       D1 diagnostic:  0.04519459

 Adding energy correction from Wij-K(Fij), methodcc=6  factor=1.0
 
  CCSD correlation energy              -0.858806337497
  MP2-F12 correction (uncoupled)       -0.092459663399
  C*T doubles correction               -0.001471848882
  f12b correction                       0.015405503808


 Total CPU time for triples:     26.66 sec


 RESULTS
 =======

  Reference energy                   -263.771049285895
  F12 singles correction               -0.015925851292

 F12 singles corrections added to reference energy

  New reference energy               -263.786975137188

  F12a singlet correction              -0.080380945702
  F12a triplet correction              -0.013550566578
  F12a total correction                -0.093931512280

 F12a corrections for ansatz F12/3C(FIX) added to CCSD energy
 
  CCSD-F12a singlet pair energy        -0.641832138193
  CCSD-F12a triplet pair energy        -0.310905676086
  CCSD-F12a correlation energy         -0.952737849777

  Triples (T) contribution             -0.037712433063
  Total correlation energy             -0.990450282840

  CCSD-F12a total energy             -264.739712986964
  CCSD[T]-F12a energy                -264.779966592750
  CCSD-T-F12a energy                 -264.776490617968
 !CCSD(T)-F12a total energy          -264.777425420027

 F12b corrections for ansatz F12/3C(FIX) added to CCSD(T)-F12a energy

  CCSD-F12b singlet pair energy        -0.627651430954
  CCSD-F12b triplet pair energy        -0.309680879517
  CCSD-F12b correlation energy         -0.937332345969

  Triples (T) contribution             -0.037712433063
  Total correlation energy             -0.975044779031

  CCSD-F12b total energy             -264.724307483156
  CCSD[T]-F12b energy                -264.764561088942
  CCSD-T-F12b energy                 -264.761085114160
 !CCSD(T)-F12b total energy          -264.762019916219

 Timing summary (sec):

 STEP                 CPU(USER)    SYS     CPU(TOT)    WALL
 Transformation          1.41      0.22      1.63      1.62
 CCSD iterations         8.58      0.68      9.26      9.26
 Triples                26.66      0.75     27.41     27.42
 MP2-F12                 9.09      1.18     10.27     10.28
 F12b energy             0.62      0.02      0.64      0.63

 Program statistics:

 Available memory in ccsd:                99998934
 Min. memory needed in ccsd:               2244783
 Max. memory used in ccsd:                 3005571
 Max. memory used in cckext:               2769663 (10 integral passes)



 **********************************************************************************************************************************
 DATASETS  * FILE   NREC   LENGTH (MB)   RECORD NAMES
              1      20      137.19       500      610      700      900      950      970     1000      129      960     1100   
                                          VAR    BASINP    GEOM    SYMINP    ZMAT    AOBASIS   BASIS     P2S    ABASIS      S 
                                         1400     1410     1200     1210     1080     1600     1650     1700      960(1)  1380   
                                           T        V       H0       H01     AOSYM     SMH    MOLCAS    OPER    ABASIS    JKOP   

              2       5        0.97       700     1000     2100     7360     7350   
                                         GEOM     BASIS     RHF    F12ABS    EF12   

 PROGRAMS   *        TOTAL   CCSD(T)        HF       INT
 CPU TIMES  *        53.09     46.37      1.38      5.27
 REAL TIME  *        56.92 SEC
 DISK USED  *         1.45 GB      
 SF USED    *         1.34 GB      
 GA USED    *         2.40 MB       (max)       0.00 MB       (current)
 **********************************************************************************************************************************

     CCSD(T)-F12        HF-SCF  
   -264.76201992   -263.77104929
 **********************************************************************************************************************************
 Variable memory released
