
 Primary working directories    : /scratch/kee
 Secondary working directories  : /scratch/kee
 Wavefunction directory         : /home/kee/wfu/
 Main file repository           : /scratch/kee/

 ARCHNAME  : Linux/x86_64
 FC        : /opt/intel/composer_xe_2015.0.090/bin/intel64/ifort
 FCVERSION : 15.0.0
 BLASLIB   : -L/opt/intel/mkl/lib/intel64 -lmkl_intel_ilp64 -lmkl_sequential -lmkl_core
 id        : emory

 Nodes     nprocs
 node8        3
 Number of processes for MPI-2 version of Molpro:   nprocs(total)=    4   nprocs(compute)=    3   nprocs(helper)=    1
 ga_uses_ma=false, calling ma_init with nominal heap.
 GA-space will be limited to   8.0 MW (determined by -G option)

 Using customized tuning parameters: mindgm=7; mindgv=32; mindgc=1; mindgr=1; noblas=0; mincuda=1000; minvec=7
 default implementation of scratch files=sf  

 ***,co2h2o
 memory,100,m
 basis avtz
 geomtype = xyz
 geometry = {
 3
       0.00000000
 O     0.00351000    1.16210700    0.00000000
 O     0.00351000   -1.16210700    0.00000000
 C     0.01968000    0.00000000    0.00000000
 }
 hf
 ccsd(t)-f12
 ---

 Variables initialized (665), CPU time= 0.01 sec
 Commands  initialized (462), CPU time= 0.00 sec, 486 directives.
 Default parameters read. Elapsed time= 0.03 sec

 Checking input...
 Passed
1


                                         ***  PROGRAM SYSTEM MOLPRO  ***
                         Copyright, University College Cardiff Consultants Limited, 2008

                                    Version 2010.1 linked 9 Dec 2014 15:06:28 


 **********************************************************************************************************************************
 LABEL *   co2h2o                                                                        
 Linux-2.6.32-504.el6.x86_64/node8(x86_64) 64 bit mpp version                            DATE: 12-Dec-16          TIME: 14:08:24  
 **********************************************************************************************************************************

 Patch level:      19
 **********************************************************************************************************************************

 Variable memory set to  100000000 words,  buffer space   230000 words

 SETTING BASIS          =    AVTZ
 SETTING GEOMTYPE       =    XYZ

Geometry recognized as XYZ



 Recomputing integrals since basis changed


 Using spherical harmonics

 Library entry O      S aug-cc-pVTZ          selected for orbital group  1
 Library entry O      P aug-cc-pVTZ          selected for orbital group  1
 Library entry O      D aug-cc-pVTZ          selected for orbital group  1
 Library entry O      F aug-cc-pVTZ          selected for orbital group  1
 Library entry C      S aug-cc-pVTZ          selected for orbital group  2
 Library entry C      P aug-cc-pVTZ          selected for orbital group  2
 Library entry C      D aug-cc-pVTZ          selected for orbital group  2
 Library entry C      F aug-cc-pVTZ          selected for orbital group  2

1PROGRAM * SEWARD (Integral evaluation for generally contracted gaussian basis sets)     Author: Roland Lindh, 1990

 Geometry written to block  1 of record 700


 Point group  C2v 



 ATOMIC COORDINATES

 NR  ATOM    CHARGE       X              Y              Z

   1  O       8.00    0.006632939    2.196063965    0.000000000
   2  O       8.00    0.006632939   -2.196063965    0.000000000
   3  C       6.00    0.037189810    0.000000000    0.000000000

 Bond lengths in Bohr (Angstrom)

 1-3  2.196276545  2-3  2.196276545
     (1.162219492)     (1.162219492)

 Bond angles

  1-3-2  178.40563223

 NUCLEAR CHARGE:                   22
 NUMBER OF PRIMITIVE AOS:         201
 NUMBER OF SYMMETRY AOS:          174
 NUMBER OF CONTRACTIONS:          138   (  49A1  +  41B1  +  27B2  +  21A2  )
 NUMBER OF CORE ORBITALS:           3   (   2A1  +   1B1  +   0B2  +   0A2  )
 NUMBER OF VALENCE ORBITALS:       12   (   5A1  +   4B1  +   2B2  +   1A2  )


 NUCLEAR REPULSION ENERGY   58.28186705


 Eigenvalues of metric

         1 0.420E-03 0.903E-03 0.317E-02 0.405E-02 0.540E-02 0.136E-01 0.149E-01 0.297E-01
         2 0.349E-03 0.922E-03 0.175E-02 0.348E-02 0.744E-02 0.205E-01 0.216E-01 0.296E-01
         3 0.318E-02 0.136E-01 0.297E-01 0.319E-01 0.590E-01 0.947E-01 0.108E+00 0.167E+00
         4 0.348E-02 0.296E-01 0.363E-01 0.561E-01 0.139E+00 0.199E+00 0.204E+00 0.240E+00


 Contracted 2-electron integrals neglected if value below      1.0D-11
 AO integral compression algorithm  1   Integral accuracy      1.0D-11

     67.633 MB (compressed) written to integral file ( 48.0%)

     Node minimum: 21.758 MB, node maximum: 23.331 MB


 NUMBER OF SORTED TWO-ELECTRON INTEGRALS:    3958824.     BUFFER LENGTH:  32768
 NUMBER OF SEGMENTS:   1  SEGMENT LENGTH:    3958824      RECORD LENGTH: 524288

 Memory used in sort:       4.52 MW

 SORT1 READ    17628860. AND WROTE     3522099. INTEGRALS IN     11 RECORDS. CPU TIME:     0.29 SEC, REAL TIME:     0.33 SEC
 SORT2 READ    10602530. AND WROTE    11875003. INTEGRALS IN    249 RECORDS. CPU TIME:     0.09 SEC, REAL TIME:     0.12 SEC

 Node minimum:     3957926.  Node maximum:     3958824. integrals

 OPERATOR DM      FOR CENTER  0  COORDINATES:    0.000000    0.000000    0.000000


 **********************************************************************************************************************************
 DATASETS  * FILE   NREC   LENGTH (MB)   RECORD NAMES
              1      18        2.82       500      610      700      900      950      970     1000      129      960     1100   
                                          VAR    BASINP    GEOM    SYMINP    ZMAT    AOBASIS   BASIS     P2S    ABASIS      S 
                                         1400     1410     1200     1210     1080     1600     1650     1700   
                                           T        V       H0       H01     AOSYM     SMH    MOLCAS    OPER   

 PROGRAMS   *        TOTAL       INT
 CPU TIMES  *         0.91      0.84
 REAL TIME  *         1.04 SEC
 DISK USED  *       194.28 MB      
 GA USED    *         0.00 MB       (max)       0.00 MB       (current)
 **********************************************************************************************************************************

1PROGRAM * RHF-SCF (CLOSED SHELL)       Authors: W. Meyer, H.-J. Werner


 NUMBER OF ELECTRONS:      11+   11-
 CONVERGENCE THRESHOLDS:    1.00E-05 (Density)    1.00E-07 (Energy)
 MAX. NUMBER OF ITERATIONS:       60
 INTERPOLATION TYPE:            DIIS
 INTERPOLATION STEPS:              2 (START)      1 (STEP)
 LEVEL SHIFTS:                  0.00 (CLOSED)  0.00 (OPEN) 



 Orbital guess generated from atomic densities. Full valence occupancy:    7   5   2   1

 Molecular orbital dump at record        2100.2

 Initial alpha occupancy:   5   4   1   1
 Initial beta  occupancy:   5   4   1   1
 Wave function symmetry:    1

 ITERATION    DDIFF          GRAD             ENERGY        2-EL.EN.            DIPOLE MOMENTS         DIIS
    1      0.000D+00      0.000D+00      -187.63740693    252.704674    0.04770    0.00000    0.00000    0
    2      0.000D+00      0.122D-01      -187.67598316    251.746411    0.00829    0.00000    0.00000    1
    3      0.190D-01      0.856D-02      -187.70860199    252.779602    0.02303    0.00000    0.00000    2
    4      0.836D-02      0.715D-03      -187.70888986    252.573131    0.02245    0.00000    0.00000    3
    5      0.871D-03      0.209D-03      -187.70892254    252.612606    0.02222    0.00000    0.00000    4
    6      0.334D-03      0.508D-04      -187.70892475    252.608132    0.02215    0.00000    0.00000    5
    7      0.101D-03      0.641D-05      -187.70892480    252.608566    0.02216    0.00000    0.00000    6
    8      0.141D-04      0.119D-05      -187.70892481    252.608547    0.02216    0.00000    0.00000    5
    9      0.284D-05      0.251D-06      -187.70892481    252.608573    0.02217    0.00000    0.00000    0

 Final occupancy:   5   4   1   1

 !RHF STATE 1.1 Energy               -187.708924806731
 Nuclear energy                        58.28186705
 One-electron energy                 -372.29507820
 Two-electron energy                  126.30428635
 Virial quotient                       -1.00199219
 !RHF STATE 1.1 Dipole moment           0.02216506     0.00000000     0.00000000
 Dipole moment /Debye                   0.05633428     0.00000000     0.00000000

 Orbital energies:

         1.1          2.1          3.1          4.1          5.1          6.1          7.1
    -20.653453   -11.462257    -1.531109    -0.801350    -0.715174     0.047283     0.072861

         1.2          2.2          3.2          4.2          5.2          6.2
    -20.653498    -1.478025    -0.743584    -0.544804     0.078838     0.163732

         1.3          2.3          3.3
     -0.715180     0.072855     0.199693

         1.4          2.4          3.4
     -0.544821     0.163743     0.482803


 **********************************************************************************************************************************
 DATASETS  * FILE   NREC   LENGTH (MB)   RECORD NAMES
              1      18        2.82       500      610      700      900      950      970     1000      129      960     1100   
                                          VAR    BASINP    GEOM    SYMINP    ZMAT    AOBASIS   BASIS     P2S    ABASIS      S 
                                         1400     1410     1200     1210     1080     1600     1650     1700   
                                           T        V       H0       H01     AOSYM     SMH    MOLCAS    OPER   

              2       3        0.42       700     1000     2100   
                                         GEOM     BASIS     RHF  

 PROGRAMS   *        TOTAL        HF       INT
 CPU TIMES  *         1.07      0.16      0.84
 REAL TIME  *         1.22 SEC
 DISK USED  *       206.52 MB      
 SF USED    *         0.02 MB      
 GA USED    *         0.00 MB       (max)       0.00 MB       (current)
 **********************************************************************************************************************************


1PROGRAM * CCSD (Closed-shell coupled cluster)     Authors: C. Hampel, H.-J. Werner, 1991, M. Deegan, P.J. Knowles, 1992

                                  CCSD-F12 implementation by  H.-J. Werner, 2007

                   Density fitting integral evaluation by F.R. Manby, 2003,2007, G. Knizia, 2010

 Basis set CC-PVTZ/JKFIT generated.      Number of basis functions:   237 
 Basis set AUG-CC-PVTZ/MP2FIT generated. Number of basis functions:   318 

 Convergence thresholds:  THRVAR = 1.00D-08  THRDEN = 1.00D-06

 CCSD(T)     terms to be evaluated (factor= 1.000)


 Number of core orbitals:           3 (   2   1   0   0 )
 Number of closed-shell orbitals:   8 (   3   3   1   1 )
 Number of external orbitals:     127 (  44  37  26  20 )

 Molecular orbitals read from record     2100.2  Type=RHF/CANONICAL (state 1.1)

 MP2-F12 correlation treatment (H.-J. Werner, 2006)
 --------------------------------------------------

 Using MP2-F12 with ansatz 3C(FIX)

 Using projected zeroth-order Hamiltonian (+Z)

 FOCKRIB=T FOCKRIC=T FOCKRIP=T CABSP=T CABSA=T CABSK=T CABSF=T GBC=F EBC=F DMAT=T NOFIK=T NOPAO=1 SOLVE=-1  USEPAO=0
 EXCH_A= T EXCH_B= F EXCH_C= F EXCH_P= F
 
 Geminal basis:    OPTFULL  GEM_TYPE=SLATER  BETA=1.0  NGEM=6

 Optimizing Gaussian exponents for each gem_beta

 Geminal optimization for beta= 1.0000
 Weight function:   m=0, omega= 1.4646

 Augmented Hessian optimization of geminal fit. Trust ratio= 0.40000
 Convergence reached after   2 iterations. Final gradient= 8.24D-16, Step= 4.32D-06, Delta= 1.28D-09
 
 Alpha:                 0.19532     0.81920     2.85917     9.50073    35.69989   197.79328
 Coeff:                 0.27070     0.30552     0.18297     0.10986     0.06810     0.04224
 

 Symmetry turned off. Reference energy:       -187.708924806730

 All pairs explicitly correlated. Number of r12-pairs:           36
 
 AO(A)-basis ORBITAL           loaded. Number of functions:     138
 RI(R)-basis CC-PVTZ/JKFIT     loaded. Number of functions:     237
 DF-basis CC-PVTZ/JKFIT        loaded. Number of functions:     237

 Screening thresholds:   THRAO=  1.00D-10  THRMO=  1.00D-09  THRPROD=  1.00D-09
                         THRSW=  1.00D-05  THROV=  1.00D-12  THRF12=   1.00D-08

 CPU time for Fock operators                      0.25 sec
 
 Construction of ABS:
 Smallest eigenvalue of S          2.57E-04  (threshold= 1.00E-08)
 Ratio eigmin/eigmax               1.83E-06  (threshold= 1.00E-09)
 Smallest eigenvalue of S kept     2.57E-04  (threshold= 2.57E-04, 0 functions deleted, 237 kept)
 
 Construction of CABS:
 Smallest eigenvalue of S          2.30E-08  (threshold= 1.00E-08)
 Ratio eigmin/eigmax               2.30E-08  (threshold= 1.00E-09)
 Smallest eigenvalue of S kept     2.30E-08  (threshold= 2.30E-08, 0 functions deleted, 237 kept)
 
 CPU time for CABS singles                        0.04 sec

 CABS-singles contribution of  -0.01134842 patched into reference energy.
 New reference energy        -187.72027323
 
 AO(A)-basis ORBITAL           loaded. Number of functions:     138
 RI(R)-basis CC-PVTZ/JKFIT     loaded. Number of functions:     237
 DF-basis AUG-CC-PVTZ/MP2FIT   loaded. Number of functions:     318

 Screening thresholds:   THRAO=  1.00D-10  THRMO=  1.00D-09  THRPROD=  1.00D-09
                         THRSW=  1.00D-05  THROV=  1.00D-12  THRF12=   1.00D-08

 CPU time for 3-index integral evaluation         0.78 sec
 CPU time for first  half transformation          0.05 sec ( 9722.2 MFLOP/sec)
 CPU time for second half transformation          0.01 sec ( 1952.8 MFLOP/sec)
 CPU time for sorting                             0.02 sec
 CPU time for fitting                             0.01 sec (24755.2 MFLOP/sec)
 CPU time for assembly                            0.10 sec (25467.3 MFLOP/sec)
 CPU time for tranop_f12                          0.11 sec (28743.2 MFLOP/sec)
 CPU time for f12 integrals (total)               1.49 sec
 F12-matrices built in  3 passes.
 F12-matrices built in  3 passes.
 F12-matrices built in  3 passes.
 F12-matrices built in  3 passes.
 FC-matrix built in  3 passes.
 CPU time for f12 matrices (total)                0.05 sec

 Diagonal F12 approximation with fixed coefficients:  TSING= 0.500,  TTRIP= 0.250 (scaled by -1/beta)

 DF-MP2-F12 energy corrections:
 ------------------------------
 Approx.                                    Singlet             Triplet             Total
 DF-MP2-F12/3*C(DX,FIX)                -0.067696629711     -0.012041594646     -0.079738224357
 DF-MP2-F12/3*C(FIX)                   -0.055404732507     -0.009594653194     -0.064999385702
 DF-MP2-F12/3C(FIX)                    -0.055648783937     -0.009628277218     -0.065277061155

 DF-MP2-F12 correlation energies:
 --------------------------------
 Approx.                                    Singlet             Triplet             Ecorr            Total Energy
 DF-MP2                                -0.367086217983     -0.245318242640     -0.612404460624   -188.332677688476
 DF-MP2-F12/3*C(DX,FIX)                -0.434782847694     -0.257359837286     -0.692142684981   -188.412415912833
 DF-MP2-F12/3*C(FIX)                   -0.422490950491     -0.254912895835     -0.677403846325   -188.397677074177
 DF-MP2-F12/3C(FIX)                    -0.422735001920     -0.254946519858     -0.677681521778   -188.397954749630

 SCS-DF-MP2 energies (F_SING= 1.20000  F_TRIP= 0.62222  F_PARALLEL= 0.33333):
 ----------------------------------------------------------------------------
 SCS-DF-MP2                            -0.593145923667   -188.313419151519
 SCS-DF-MP2-F12/3*C(DX,FIX)            -0.681874427100   -188.402147654952
 SCS-DF-MP2-F12/3*C(FIX)               -0.665601609108   -188.385874836960
 SCS-DF-MP2-F12/3C(FIX)                -0.665915392438   -188.386188620290

 Symmetry restored.
 Symmetry transformation completed.

 Number of N-1 electron functions:               8
 Number of N-2 electron functions:              36
 Number of singly external CSFs:               289
 Number of doubly external CSFs:            131990
 Total number of CSFs:                      132280

 Pair and operator lists are different

 Length of J-op  integral file:              79.26 MB
 Length of K-op  integral file:              91.39 MB
 Length of 3-ext integral record:             0.00 MB

 Memory could be reduced to 6.18 Mwords without degradation in triples

 Integral transformation finished. Total CPU:   0.15 sec, npass=  1  Memory used:   1.11 MW

 Reference energy:                   -187.72027323

 Adding F12 terms to K(Cij), methodcc=6,  factor=1.0

 ITER.      SQ.NORM     CORR.ENERGY   TOTAL ENERGY   ENERGY CHANGE        DEN1      VAR(S)    VAR(P)  DIIS     TIME
   1      1.14105085    -0.59451463  -188.31478786     0.01788365     0.04080760  0.64D-02  0.46D-02  1  1     2.21
   2      1.15205363    -0.59061941  -188.31089264     0.00389521    -0.01558957  0.93D-04  0.43D-03  2  2     2.32
   3      1.15647583    -0.59061635  -188.31088958     0.00000306    -0.00181589  0.11D-03  0.23D-04  3  3     2.44
   4      1.15885025    -0.59044890  -188.31072213     0.00016745    -0.00110343  0.59D-05  0.31D-05  4  4     2.55
   5      1.15968834    -0.59040868  -188.31068191     0.00004022    -0.00028750  0.35D-06  0.21D-06  5  5     2.66
   6      1.15979831    -0.59039026  -188.31066349     0.00001842    -0.00000005  0.24D-07  0.19D-07  6  6     2.78
   7      1.15981761    -0.59038860  -188.31066182     0.00000167    -0.00000422  0.16D-08  0.29D-08  6  2     2.89
   8      1.15981565    -0.59038879  -188.31066202    -0.00000019     0.00000221  0.25D-09  0.20D-09  6  1     3.01
   9      1.15981590    -0.59038875  -188.31066198     0.00000004     0.00000046  0.17D-10  0.16D-10  6  4     3.12

 Norm of t1 vector:      0.09972867      S-energy:    -0.00000001      T1 diagnostic:  0.01762970
                                                                       D1 diagnostic:  0.04494697

 Adding energy correction from Wij-K(Fij), methodcc=6  factor=1.0
 
  CCSD correlation energy              -0.590388747229
  MP2-F12 correction (uncoupled)       -0.064414448074
  C*T doubles correction               -0.001040338492
  f12b correction                       0.010654728595


 Total CPU time for triples:      0.90 sec


 RESULTS
 =======

  Reference energy                   -187.708924806731
  F12 singles correction               -0.011348421122

 F12 singles corrections added to reference energy

  New reference energy               -187.720273227852

  F12a singlet correction              -0.055765993411
  F12a triplet correction              -0.009688793155
  F12a total correction                -0.065454786566

 F12a corrections for ansatz F12/3C(FIX) added to CCSD energy
 
  CCSD-F12a singlet pair energy        -0.435798687897
  CCSD-F12a triplet pair energy        -0.220044831770
  CCSD-F12a correlation energy         -0.655843533795

  Triples (T) contribution             -0.029206001678
  Total correlation energy             -0.685049535472

  CCSD-F12a total energy             -188.376116761647
  CCSD[T]-F12a energy                -188.407568992078
  CCSD-T-F12a energy                 -188.404506366389
 !CCSD(T)-F12a total energy          -188.405322763324

 F12b corrections for ansatz F12/3C(FIX) added to CCSD(T)-F12a energy

  CCSD-F12b singlet pair energy        -0.426005152375
  CCSD-F12b triplet pair energy        -0.219183638697
  CCSD-F12b correlation energy         -0.645188805200

  Triples (T) contribution             -0.029206001678
  Total correlation energy             -0.674394806877

  CCSD-F12b total energy             -188.365462033052
  CCSD[T]-F12b energy                -188.396914263483
  CCSD-T-F12b energy                 -188.393851637795
 !CCSD(T)-F12b total energy          -188.394668034730

 Timing summary (sec):

 STEP                 CPU(USER)    SYS     CPU(TOT)    WALL
 Transformation          0.15      0.03      0.18      0.18
 CCSD iterations         1.06      0.10      1.16      1.15
 Triples                 0.90      0.04      0.94      0.94
 MP2-F12                 1.92      0.17      2.09      2.09
 F12b energy             0.09      0.00      0.09      0.09

 Program statistics:

 Available memory in ccsd:                99999464
 Min. memory needed in ccsd:                416499
 Max. memory used in ccsd:                  529280
 Max. memory used in cckext:                522039 (10 integral passes)



 **********************************************************************************************************************************
 DATASETS  * FILE   NREC   LENGTH (MB)   RECORD NAMES
              1      20       22.10       500      610      700      900      950      970     1000      129      960     1100   
                                          VAR    BASINP    GEOM    SYMINP    ZMAT    AOBASIS   BASIS     P2S    ABASIS      S 
                                         1400     1410     1200     1210     1080     1600     1650     1700      960(1)  1380   
                                           T        V       H0       H01     AOSYM     SMH    MOLCAS    OPER    ABASIS    JKOP   

              2       5        0.54       700     1000     2100     7360     7350   
                                         GEOM     BASIS     RHF    F12ABS    EF12   

 PROGRAMS   *        TOTAL   CCSD(T)        HF       INT
 CPU TIMES  *         5.21      4.13      0.16      0.84
 REAL TIME  *         5.74 SEC
 DISK USED  *       240.01 MB      
 SF USED    *       259.70 MB      
 GA USED    *         2.40 MB       (max)       0.00 MB       (current)
 **********************************************************************************************************************************

     CCSD(T)-F12        HF-SCF  
   -188.39466803   -187.70892481
 **********************************************************************************************************************************
 Variable memory released
