
 Primary working directories    : /scratch/kee
 Secondary working directories  : /scratch/kee
 Wavefunction directory         : /home/kee/wfu/
 Main file repository           : /scratch/kee/

 ARCHNAME  : Linux/x86_64
 FC        : /opt/intel/composer_xe_2015.0.090/bin/intel64/ifort
 FCVERSION : 15.0.0
 BLASLIB   : -L/opt/intel/mkl/lib/intel64 -lmkl_intel_ilp64 -lmkl_sequential -lmkl_core
 id        : emory

 Nodes     nprocs
 node24       3
 Number of processes for MPI-2 version of Molpro:   nprocs(total)=    4   nprocs(compute)=    3   nprocs(helper)=    1
 ga_uses_ma=false, calling ma_init with nominal heap.
 GA-space will be limited to   8.0 MW (determined by -G option)

 Using customized tuning parameters: mindgm=7; mindgv=32; mindgc=1; mindgr=1; noblas=0; mincuda=1000; minvec=7
 default implementation of scratch files=sf  

 ***,co2h2o
 memory,100,m
 basis avtz
 geomtype = xyz
 geometry = {
 6
       0.00000000
 O     0.01288800    1.16233300    0.00000000
 O     0.01288800   -1.16233300    0.00000000
 O    15.35363900    0.00000000    0.00000000
 H    14.77249900    0.76306800    0.00000000
 H    14.77249900   -0.76306800    0.00000000
 C     0.00363900    0.00000000    0.00000000
 }
 hf
 ccsd(t)-f12
 ---

 Variables initialized (665), CPU time= 0.01 sec
 Commands  initialized (462), CPU time= 0.00 sec, 486 directives.
 Default parameters read. Elapsed time= 0.04 sec

 Checking input...
 Passed
1


                                         ***  PROGRAM SYSTEM MOLPRO  ***
                         Copyright, University College Cardiff Consultants Limited, 2008

                                    Version 2010.1 linked 9 Dec 2014 15:06:28 


 **********************************************************************************************************************************
 LABEL *   co2h2o                                                                        
 Linux-2.6.32-504.el6.x86_64/node24(x86_64) 64 bit mpp version                           DATE: 15-Dec-16          TIME: 00:22:50  
 **********************************************************************************************************************************

 Patch level:      19
 **********************************************************************************************************************************

 Variable memory set to  100000000 words,  buffer space   230000 words

 SETTING BASIS          =    AVTZ
 SETTING GEOMTYPE       =    XYZ

Geometry recognized as XYZ



 Recomputing integrals since basis changed


 Using spherical harmonics

 Library entry O      S aug-cc-pVTZ          selected for orbital group  1
 Library entry O      P aug-cc-pVTZ          selected for orbital group  1
 Library entry O      D aug-cc-pVTZ          selected for orbital group  1
 Library entry O      F aug-cc-pVTZ          selected for orbital group  1
 Library entry H      S aug-cc-pVTZ          selected for orbital group  2
 Library entry H      P aug-cc-pVTZ          selected for orbital group  2
 Library entry H      D aug-cc-pVTZ          selected for orbital group  2
 Library entry C      S aug-cc-pVTZ          selected for orbital group  3
 Library entry C      P aug-cc-pVTZ          selected for orbital group  3
 Library entry C      D aug-cc-pVTZ          selected for orbital group  3
 Library entry C      F aug-cc-pVTZ          selected for orbital group  3

1PROGRAM * SEWARD (Integral evaluation for generally contracted gaussian basis sets)     Author: Roland Lindh, 1990

 Geometry written to block  1 of record 700


 Point group  C2v 



 ATOMIC COORDINATES

 NR  ATOM    CHARGE       X              Y              Z

   1  O       8.00    0.024354790    2.196491044    0.000000000
   2  O       8.00    0.024354790   -2.196491044    0.000000000
   3  O       8.00   29.014172831    0.000000000    0.000000000
   4  H       1.00   27.915977387    1.441989540    0.000000000
   5  H       1.00   27.915977387   -1.441989540    0.000000000
   6  C       6.00    0.006876713    0.000000000    0.000000000

 Bond lengths in Bohr (Angstrom)

 1-6  2.196560581  2-6  2.196560581  3-4  1.812558155  3-5  1.812558155
     (1.162369798)     (1.162369798)     (0.959164466)     (0.959164466)

 Bond angles

  1-6-2  179.08818302   4-3-5  105.41539946

 NUCLEAR CHARGE:                   32
 NUMBER OF PRIMITIVE AOS:         322
 NUMBER OF SYMMETRY AOS:          282
 NUMBER OF CONTRACTIONS:          230   (  84A1  +  68B1  +  45B2  +  33A2  )
 NUMBER OF CORE ORBITALS:           4   (   3A1  +   1B1  +   0B2  +   0A2  )
 NUMBER OF VALENCE ORBITALS:       18   (   8A1  +   6B1  +   3B2  +   1A2  )


 NUCLEAR REPULSION ENERGY   75.07657092

 EXTRA SYMMETRY OF AOS IN SYMMETRY 4:   1 1 1 1 1 1 1 1 1 1   1 1 1 1 1 1 2 2 2 2   2 2 2 2 2 2 2 2 1 1   1 1 1

 Eigenvalues of metric

         1 0.384E-03 0.420E-03 0.903E-03 0.186E-02 0.318E-02 0.321E-02 0.405E-02 0.540E-02
         2 0.349E-03 0.393E-03 0.923E-03 0.168E-02 0.175E-02 0.348E-02 0.514E-02 0.627E-02
         3 0.318E-02 0.595E-02 0.136E-01 0.297E-01 0.319E-01 0.365E-01 0.590E-01 0.641E-01
         4 0.348E-02 0.124E-01 0.296E-01 0.362E-01 0.561E-01 0.680E-01 0.111E+00 0.140E+00


 Contracted 2-electron integrals neglected if value below      1.0D-11
 AO integral compression algorithm  1   Integral accuracy      1.0D-11

     130.548 MB (compressed) written to integral file ( 37.0%)

     Node minimum: 41.681 MB, node maximum: 46.137 MB


 NUMBER OF SORTED TWO-ELECTRON INTEGRALS:   30156294.     BUFFER LENGTH:  32768
 NUMBER OF SEGMENTS:   2  SEGMENT LENGTH:   15999663      RECORD LENGTH: 524288

 Memory used in sort:      16.56 MW

 SORT1 READ    44150025. AND WROTE     7863282. INTEGRALS IN     24 RECORDS. CPU TIME:     0.76 SEC, REAL TIME:     0.87 SEC
 SORT2 READ    23486497. AND WROTE    90461370. INTEGRALS IN    477 RECORDS. CPU TIME:     0.32 SEC, REAL TIME:     0.42 SEC

 Node minimum:    30151286.  Node maximum:    30156294. integrals

 OPERATOR DM      FOR CENTER  0  COORDINATES:    0.000000    0.000000    0.000000


 **********************************************************************************************************************************
 DATASETS  * FILE   NREC   LENGTH (MB)   RECORD NAMES
              1      18        3.24       500      610      700      900      950      970     1000      129      960     1100   
                                          VAR    BASINP    GEOM    SYMINP    ZMAT    AOBASIS   BASIS     P2S    ABASIS      S 
                                         1400     1410     1200     1210     1080     1600     1650     1700   
                                           T        V       H0       H01     AOSYM     SMH    MOLCAS    OPER   

 PROGRAMS   *        TOTAL       INT
 CPU TIMES  *         2.16      2.08
 REAL TIME  *         2.50 SEC
 DISK USED  *       420.38 MB      
 GA USED    *         0.00 MB       (max)       0.00 MB       (current)
 **********************************************************************************************************************************

1PROGRAM * RHF-SCF (CLOSED SHELL)       Authors: W. Meyer, H.-J. Werner


 NUMBER OF ELECTRONS:      16+   16-
 CONVERGENCE THRESHOLDS:    1.00E-05 (Density)    1.00E-07 (Energy)
 MAX. NUMBER OF ITERATIONS:       60
 INTERPOLATION TYPE:            DIIS
 INTERPOLATION STEPS:              2 (START)      1 (STEP)
 LEVEL SHIFTS:                  0.00 (CLOSED)  0.00 (OPEN) 



 Orbital guess generated from atomic densities. Full valence occupancy:   11   7   3   1

 Molecular orbital dump at record        2100.2

 Initial alpha occupancy:   8   5   2   1
 Initial beta  occupancy:   8   5   2   1
 Wave function symmetry:    1

 ITERATION    DDIFF          GRAD             ENERGY        2-EL.EN.            DIPOLE MOMENTS         DIIS
    1      0.000D+00      0.000D+00      -263.66022979    345.512070   -1.15213    0.00000    0.00000    0
    2      0.000D+00      0.881D-02      -263.72547234    341.013211   -0.67241    0.00000    0.00000    1
    3      0.141D-01      0.599D-02      -263.76889034    343.559300   -0.78934    0.00000    0.00000    2
    4      0.583D-02      0.563D-03      -263.76938595    343.345451   -0.79337    0.00000    0.00000    3
    5      0.690D-03      0.164D-03      -263.76944401    343.349111   -0.78786    0.00000    0.00000    4
    6      0.256D-03      0.660D-04      -263.76945117    343.363312   -0.78860    0.00000    0.00000    5
    7      0.847D-04      0.162D-04      -263.76945190    343.355059   -0.78814    0.00000    0.00000    6
    8      0.278D-04      0.356D-05      -263.76945195    343.356353   -0.78814    0.00000    0.00000    7
    9      0.760D-05      0.119D-05      -263.76945195    343.356170   -0.78811    0.00000    0.00000    0

 Final occupancy:   8   5   2   1

 !RHF STATE 1.1 Energy               -263.769451951590
 Nuclear energy                        75.07657092
 One-electron energy                 -510.52410798
 Two-electron energy                  171.67808510
 Virial quotient                       -1.00184560
 !RHF STATE 1.1 Dipole moment          -0.78811230     0.00000000     0.00000000
 Dipole moment /Debye                  -2.00305046     0.00000000     0.00000000

 Orbital energies:

         1.1          2.1          3.1          4.1          5.1          6.1          7.1          8.1          9.1         10.1
    -20.654414   -20.567206   -11.463265    -1.531933    -1.352031    -0.802282    -0.716034    -0.582882     0.029403     0.046379

         1.2          2.2          3.2          4.2          5.2          6.2          7.2
    -20.654460    -1.478885    -0.744483    -0.718594    -0.545732     0.047559     0.077953

         1.3          2.3          3.3          4.3
     -0.716033    -0.510001     0.071973     0.158401

         1.4          2.4          3.4
     -0.545736     0.162856     0.264853


 **********************************************************************************************************************************
 DATASETS  * FILE   NREC   LENGTH (MB)   RECORD NAMES
              1      18        3.25       500      610      700      900      950      970     1000      129      960     1100   
                                          VAR    BASINP    GEOM    SYMINP    ZMAT    AOBASIS   BASIS     P2S    ABASIS      S 
                                         1400     1410     1200     1210     1080     1600     1650     1700   
                                           T        V       H0       H01     AOSYM     SMH    MOLCAS    OPER   

              2       3        0.68       700     1000     2100   
                                         GEOM     BASIS     RHF  

 PROGRAMS   *        TOTAL        HF       INT
 CPU TIMES  *         3.02      0.86      2.08
 REAL TIME  *         3.40 SEC
 DISK USED  *       437.89 MB      
 SF USED    *         0.06 MB      
 GA USED    *         0.00 MB       (max)       0.00 MB       (current)
 **********************************************************************************************************************************


1PROGRAM * CCSD (Closed-shell coupled cluster)     Authors: C. Hampel, H.-J. Werner, 1991, M. Deegan, P.J. Knowles, 1992

                                  CCSD-F12 implementation by  H.-J. Werner, 2007

                   Density fitting integral evaluation by F.R. Manby, 2003,2007, G. Knizia, 2010

 Basis set CC-PVTZ/JKFIT generated.      Number of basis functions:   376 
 Basis set AUG-CC-PVTZ/MP2FIT generated. Number of basis functions:   516 

 Convergence thresholds:  THRVAR = 1.00D-08  THRDEN = 1.00D-06

 CCSD(T)     terms to be evaluated (factor= 1.000)


 Number of core orbitals:           4 (   3   1   0   0 )
 Number of closed-shell orbitals:  12 (   5   4   2   1 )
 Number of external orbitals:     214 (  76  63  43  32 )

 Molecular orbitals read from record     2100.2  Type=RHF/CANONICAL (state 1.1)

 MP2-F12 correlation treatment (H.-J. Werner, 2006)
 --------------------------------------------------

 Using MP2-F12 with ansatz 3C(FIX)

 Using projected zeroth-order Hamiltonian (+Z)

 FOCKRIB=T FOCKRIC=T FOCKRIP=T CABSP=T CABSA=T CABSK=T CABSF=T GBC=F EBC=F DMAT=T NOFIK=T NOPAO=1 SOLVE=-1  USEPAO=0
 EXCH_A= T EXCH_B= F EXCH_C= F EXCH_P= F
 
 Geminal basis:    OPTFULL  GEM_TYPE=SLATER  BETA=1.0  NGEM=6

 Optimizing Gaussian exponents for each gem_beta

 Geminal optimization for beta= 1.0000
 Weight function:   m=0, omega= 1.4646

 Augmented Hessian optimization of geminal fit. Trust ratio= 0.40000
 Convergence reached after   2 iterations. Final gradient= 8.24D-16, Step= 4.32D-06, Delta= 1.28D-09
 
 Alpha:                 0.19532     0.81920     2.85917     9.50073    35.69989   197.79328
 Coeff:                 0.27070     0.30552     0.18297     0.10986     0.06810     0.04224
 

 Symmetry turned off. Reference energy:       -263.769451951590

 All pairs explicitly correlated. Number of r12-pairs:           78
 
 AO(A)-basis ORBITAL           loaded. Number of functions:     230
 RI(R)-basis CC-PVTZ/JKFIT     loaded. Number of functions:     376
 DF-basis CC-PVTZ/JKFIT        loaded. Number of functions:     376

 Screening thresholds:   THRAO=  1.00D-10  THRMO=  1.00D-09  THRPROD=  1.00D-09
                         THRSW=  1.00D-05  THROV=  1.00D-12  THRF12=   1.00D-08

 CPU time for Fock operators                      0.84 sec
 
 Construction of ABS:
 Smallest eigenvalue of S          2.57E-04  (threshold= 1.00E-08)
 Ratio eigmin/eigmax               1.83E-06  (threshold= 1.00E-09)
 Smallest eigenvalue of S kept     2.57E-04  (threshold= 2.57E-04, 0 functions deleted, 376 kept)
 
 Construction of CABS:
 Smallest eigenvalue of S          2.30E-08  (threshold= 1.00E-08)
 Ratio eigmin/eigmax               2.30E-08  (threshold= 1.00E-09)
 Smallest eigenvalue of S kept     2.30E-08  (threshold= 2.30E-08, 0 functions deleted, 376 kept)
 
 CPU time for CABS singles                        0.17 sec

 CABS-singles contribution of  -0.01591927 patched into reference energy.
 New reference energy        -263.78537122
 
 AO(A)-basis ORBITAL           loaded. Number of functions:     230
 RI(R)-basis CC-PVTZ/JKFIT     loaded. Number of functions:     376
 DF-basis AUG-CC-PVTZ/MP2FIT   loaded. Number of functions:     516

 Screening thresholds:   THRAO=  1.00D-10  THRMO=  1.00D-09  THRPROD=  1.00D-09
                         THRSW=  1.00D-05  THROV=  1.00D-12  THRF12=   1.00D-08

 CPU time for 3-index integral evaluation         1.35 sec
 CPU time for first  half transformation          0.16 sec ( 7336.0 MFLOP/sec)
 CPU time for second half transformation          0.01 sec ( 5743.7 MFLOP/sec)
 CPU time for sorting                             0.09 sec
 CPU time for fitting                             0.07 sec (19900.7 MFLOP/sec)
 CPU time for tilde quantities                    0.05 sec (36807.2 MFLOP/sec)
 CPU time for assembly                            0.79 sec (29401.6 MFLOP/sec)
 CPU time for tranop_f12                          0.85 sec (34692.9 MFLOP/sec)
 CPU time for f12 integrals (total)               5.40 sec
 F12-matrices built in  3 passes.
 F12-matrices built in  3 passes.
 F12-matrices built in  3 passes.
 F12-matrices built in  3 passes.
 FC-matrix built in  3 passes.
 CPU time for f12 matrices (total)                0.47 sec

 Diagonal F12 approximation with fixed coefficients:  TSING= 0.500,  TTRIP= 0.250 (scaled by -1/beta)

 DF-MP2-F12 energy corrections:
 ------------------------------
 Approx.                                    Singlet             Triplet             Total
 DF-MP2-F12/3*C(DX,FIX)                -0.097450693047     -0.016932707286     -0.114383400333
 DF-MP2-F12/3*C(FIX)                   -0.079869384200     -0.013395594030     -0.093264978230
 DF-MP2-F12/3C(FIX)                    -0.080230393160     -0.013418618397     -0.093649011557

 DF-MP2-F12 correlation energies:
 --------------------------------
 Approx.                                    Singlet             Triplet             Ecorr            Total Energy
 DF-MP2                                -0.537760605116     -0.343095264533     -0.880855869650   -264.666227092303
 DF-MP2-F12/3*C(DX,FIX)                -0.635211298163     -0.360027971820     -0.995239269983   -264.780610492636
 DF-MP2-F12/3*C(FIX)                   -0.617629989316     -0.356490858563     -0.974120847880   -264.759492070533
 DF-MP2-F12/3C(FIX)                    -0.617990998276     -0.356513882931     -0.974504881207   -264.759876103860

 SCS-DF-MP2 energies (F_SING= 1.20000  F_TRIP= 0.62222  F_PARALLEL= 0.33333):
 ----------------------------------------------------------------------------
 SCS-DF-MP2                            -0.858794224071   -264.644165446725
 SCS-DF-MP2-F12/3*C(DX,FIX)            -0.986270962484   -264.771642185137
 SCS-DF-MP2-F12/3*C(FIX)               -0.962972521397   -264.748343744050
 SCS-DF-MP2-F12/3C(FIX)                -0.963420058422   -264.748791281075

 Symmetry restored.
 Symmetry transformation completed.

 Number of N-1 electron functions:              12
 Number of N-2 electron functions:              78
 Number of singly external CSFs:               750
 Number of doubly external CSFs:            844332
 Total number of CSFs:                      845083

 Pair and operator lists are different

 Length of J-op  integral file:             462.28 MB
 Length of K-op  integral file:             502.25 MB
 Length of 3-ext integral record:             0.00 MB

 Memory could be reduced to 38.71 Mwords without degradation in triples

 Integral transformation finished. Total CPU:   1.34 sec, npass=  1  Memory used:   7.09 MW

 Reference energy:                   -263.78537122

 Adding F12 terms to K(Cij), methodcc=6,  factor=1.0

 ITER.      SQ.NORM     CORR.ENERGY   TOTAL ENERGY   ENERGY CHANGE        DEN1      VAR(S)    VAR(P)  DIIS     TIME
   1      1.20219247    -0.86279369  -264.64816492     0.01807867     0.04672738  0.72D-02  0.56D-02  1  1     9.43
   2      1.21651327    -0.85856311  -264.64393434     0.00423058    -0.02016261  0.86D-04  0.59D-03  2  2    10.30
   3      1.22187808    -0.85865941  -264.64403063    -0.00009630    -0.00236552  0.13D-03  0.32D-04  3  3    11.19
   4      1.22468202    -0.85853134  -264.64390256     0.00012808    -0.00141212  0.76D-05  0.41D-05  4  4    12.07
   5      1.22571312    -0.85849359  -264.64386482     0.00003774    -0.00036676  0.56D-06  0.29D-06  5  5    12.96
   6      1.22587545    -0.85846671  -264.64383793     0.00002689    -0.00000807  0.40D-07  0.24D-07  6  6    13.87
   7      1.22590482    -0.85846428  -264.64383551     0.00000242    -0.00000622  0.25D-08  0.40D-08  6  4    14.77
   8      1.22590511    -0.85846380  -264.64383502     0.00000049     0.00000195  0.39D-09  0.27D-09  6  1    15.66
   9      1.22590573    -0.85846386  -264.64383509    -0.00000007     0.00000056  0.26D-10  0.21D-10  6  2    16.62

 Norm of t1 vector:      0.10600006      S-energy:    -0.00000002      T1 diagnostic:  0.01529979
                                                                       D1 diagnostic:  0.04495750

 Adding energy correction from Wij-K(Fij), methodcc=6  factor=1.0
 
  CCSD correlation energy              -0.858463862452
  MP2-F12 correction (uncoupled)       -0.092491858710
  C*T doubles correction               -0.001475480578
  f12b correction                       0.015408333919


 Total CPU time for triples:     26.65 sec


 RESULTS
 =======

  Reference energy                   -263.769451951590
  F12 singles correction               -0.015919271064

 F12 singles corrections added to reference energy

  New reference energy               -263.785371222653

  F12a singlet correction              -0.080429945881
  F12a triplet correction              -0.013537393407
  F12a total correction                -0.093967339289

 F12a corrections for ansatz F12/3C(FIX) added to CCSD energy
 
  CCSD-F12a singlet pair energy        -0.641927633981
  CCSD-F12a triplet pair energy        -0.310503544925
  CCSD-F12a correlation energy         -0.952431201741

  Triples (T) contribution             -0.037650519007
  Total correlation energy             -0.990081720748

  CCSD-F12a total energy             -264.737802424394
  CCSD[T]-F12a energy                -264.777998904741
  CCSD-T-F12a energy                 -264.774514652923
 !CCSD(T)-F12a total energy          -264.775452943402

 F12b corrections for ansatz F12/3C(FIX) added to CCSD(T)-F12a energy

  CCSD-F12b singlet pair energy        -0.627742641551
  CCSD-F12b triplet pair energy        -0.309280203437
  CCSD-F12b correlation energy         -0.937022867822

  Triples (T) contribution             -0.037650519007
  Total correlation energy             -0.974673386830

  CCSD-F12b total energy             -264.722394090476
  CCSD[T]-F12b energy                -264.762590570822
  CCSD-T-F12b energy                 -264.759106319004
 !CCSD(T)-F12b total energy          -264.760044609483

 Timing summary (sec):

 STEP                 CPU(USER)    SYS     CPU(TOT)    WALL
 Transformation          1.34      0.26      1.60      1.60
 CCSD iterations         7.99      0.62      8.61      8.64
 Triples                26.65      0.76     27.41     27.41
 MP2-F12                 7.29      1.09      8.38      9.91
 F12b energy             0.54      0.01      0.55      0.53

 Program statistics:

 Available memory in ccsd:                99998934
 Min. memory needed in ccsd:               2252999
 Max. memory used in ccsd:                 3011949
 Max. memory used in cckext:               2777209 (10 integral passes)



 **********************************************************************************************************************************
 DATASETS  * FILE   NREC   LENGTH (MB)   RECORD NAMES
              1      20      137.17       500      610      700      900      950      970     1000      129      960     1100   
                                          VAR    BASINP    GEOM    SYMINP    ZMAT    AOBASIS   BASIS     P2S    ABASIS      S 
                                         1400     1410     1200     1210     1080     1600     1650     1700      960(1)  1380   
                                           T        V       H0       H01     AOSYM     SMH    MOLCAS    OPER    ABASIS    JKOP   

              2       5        0.98       700     1000     2100     7360     7350   
                                         GEOM     BASIS     RHF    F12ABS    EF12   

 PROGRAMS   *        TOTAL   CCSD(T)        HF       INT
 CPU TIMES  *        46.88     43.86      0.86      2.08
 REAL TIME  *        51.76 SEC
 DISK USED  *       659.62 MB      
 SF USED    *         1.34 GB      
 GA USED    *         2.40 MB       (max)       0.00 MB       (current)
 **********************************************************************************************************************************

     CCSD(T)-F12        HF-SCF  
   -264.76004461   -263.76945195
 **********************************************************************************************************************************
 Variable memory released
