
 Primary working directories    : /scratch/kee
 Secondary working directories  : /scratch/kee
 Wavefunction directory         : /home/kee/wfu/
 Main file repository           : /scratch/kee/

 ARCHNAME  : Linux/x86_64
 FC        : /opt/intel/composer_xe_2015.0.090/bin/intel64/ifort
 FCVERSION : 15.0.0
 BLASLIB   : -L/opt/intel/mkl/lib/intel64 -lmkl_intel_ilp64 -lmkl_sequential -lmkl_core
 id        : emory

 Nodes     nprocs
 node19       3
 Number of processes for MPI-2 version of Molpro:   nprocs(total)=    4   nprocs(compute)=    3   nprocs(helper)=    1
 ga_uses_ma=false, calling ma_init with nominal heap.
 GA-space will be limited to   8.0 MW (determined by -G option)

 Using customized tuning parameters: mindgm=7; mindgv=32; mindgc=1; mindgr=1; noblas=0; mincuda=1000; minvec=7
 default implementation of scratch files=sf  

 ***,co2h2o
 memory,100,m
 basis avtz
 geomtype = xyz
 geometry = {
 6
    -264.76489694
 O     0.82869278    1.16169550    0.00000000
 O     0.82658011   -1.16233555    0.00000000
 O    -1.34123464    0.00054345    0.00000000
 H    -1.92486765    0.76113810    0.00000000
 H    -1.92459954   -0.76025847    0.00000000
 C     0.80876519   -0.00029961    0.00000000
 }
 hf
 ccsd(t)-f12
 ---

 Variables initialized (665), CPU time= 0.01 sec
 Commands  initialized (462), CPU time= 0.01 sec, 486 directives.
 Default parameters read. Elapsed time= 0.04 sec

 Checking input...
 Passed
1


                                         ***  PROGRAM SYSTEM MOLPRO  ***
                         Copyright, University College Cardiff Consultants Limited, 2008

                                    Version 2010.1 linked 9 Dec 2014 15:06:28 


 **********************************************************************************************************************************
 LABEL *   co2h2o                                                                        
 Linux-2.6.32-504.el6.x86_64/node19(x86_64) 64 bit mpp version                           DATE: 11-Dec-16          TIME: 23:05:08  
 **********************************************************************************************************************************

 Patch level:      19
 **********************************************************************************************************************************

 Variable memory set to  100000000 words,  buffer space   230000 words

 SETTING BASIS          =    AVTZ
 SETTING GEOMTYPE       =    XYZ

Geometry recognized as XYZ



 Recomputing integrals since basis changed


 Using spherical harmonics

 Library entry O      S aug-cc-pVTZ          selected for orbital group  1
 Library entry O      P aug-cc-pVTZ          selected for orbital group  1
 Library entry O      D aug-cc-pVTZ          selected for orbital group  1
 Library entry O      F aug-cc-pVTZ          selected for orbital group  1
 Library entry H      S aug-cc-pVTZ          selected for orbital group  2
 Library entry H      P aug-cc-pVTZ          selected for orbital group  2
 Library entry H      D aug-cc-pVTZ          selected for orbital group  2
 Library entry C      S aug-cc-pVTZ          selected for orbital group  3
 Library entry C      P aug-cc-pVTZ          selected for orbital group  3
 Library entry C      D aug-cc-pVTZ          selected for orbital group  3
 Library entry C      F aug-cc-pVTZ          selected for orbital group  3

1PROGRAM * SEWARD (Integral evaluation for generally contracted gaussian basis sets)     Author: Roland Lindh, 1990

 Geometry written to block  1 of record 700


 Point group  Cs  



 ATOMIC COORDINATES

 NR  ATOM    CHARGE       X              Y              Z

   1  O       8.00    1.566002401    2.195286343    0.000000000
   2  O       8.00    1.562010034   -2.196495862    0.000000000
   3  O       8.00   -2.534566148    0.001026972    0.000000000
   4  H       1.00   -3.637472698    1.438342557    0.000000000
   5  H       1.00   -3.636966043   -1.436680297    0.000000000
   6  C       6.00    1.528344714   -0.000566181    0.000000000

 Bond lengths in Bohr (Angstrom)

 1-6  2.196175405  2-6  2.196187724  3-4  1.811706088  3-5  1.811708509
     (1.162165971)     (1.162172490)     (0.958713571)     (0.958714852)

 Bond angles

  1-6-2  178.13918425   4-3-5  105.01947441

 NUCLEAR CHARGE:                   32
 NUMBER OF PRIMITIVE AOS:         322
 NUMBER OF SYMMETRY AOS:          282
 NUMBER OF CONTRACTIONS:          230   ( 152A'  +  78A"  )
 NUMBER OF CORE ORBITALS:           4   (   4A'  +   0A"  )
 NUMBER OF VALENCE ORBITALS:       18   (  14A'  +   4A"  )


 NUCLEAR REPULSION ENERGY  114.61054036


 Eigenvalues of metric

         1 0.201E-03 0.215E-03 0.259E-03 0.304E-03 0.395E-03 0.699E-03 0.795E-03 0.127E-02
         2 0.286E-02 0.347E-02 0.475E-02 0.113E-01 0.120E-01 0.225E-01 0.287E-01 0.291E-01


 Contracted 2-electron integrals neglected if value below      1.0D-11
 AO integral compression algorithm  1   Integral accuracy      1.0D-11

     812.122 MB (compressed) written to integral file ( 48.9%)

     Node minimum: 244.318 MB, node maximum: 295.174 MB


 NUMBER OF SORTED TWO-ELECTRON INTEGRALS:   59950380.     BUFFER LENGTH:  32768
 NUMBER OF SEGMENTS:   4  SEGMENT LENGTH:   15995235      RECORD LENGTH: 524288

 Memory used in sort:      16.55 MW

 SORT1 READ   207531521. AND WROTE    58044037. INTEGRALS IN    168 RECORDS. CPU TIME:     4.10 SEC, REAL TIME:     4.77 SEC
 SORT2 READ   174427700. AND WROTE   179836431. INTEGRALS IN   3120 RECORDS. CPU TIME:     1.22 SEC, REAL TIME:     1.93 SEC

 Node minimum:    59940574.  Node maximum:    59950380. integrals

 OPERATOR DM      FOR CENTER  0  COORDINATES:    0.000000    0.000000    0.000000


 **********************************************************************************************************************************
 DATASETS  * FILE   NREC   LENGTH (MB)   RECORD NAMES
              1      18        3.74       500      610      700      900      950      970     1000      129      960     1100   
                                          VAR    BASINP    GEOM    SYMINP    ZMAT    AOBASIS   BASIS     P2S    ABASIS      S 
                                         1400     1410     1200     1210     1080     1600     1650     1700   
                                           T        V       H0       H01     AOSYM     SMH    MOLCAS    OPER   

 PROGRAMS   *        TOTAL       INT
 CPU TIMES  *        11.46     11.37
 REAL TIME  *        13.35 SEC
 DISK USED  *         2.89 GB      
 GA USED    *         0.00 MB       (max)       0.00 MB       (current)
 **********************************************************************************************************************************

1PROGRAM * RHF-SCF (CLOSED SHELL)       Authors: W. Meyer, H.-J. Werner


 NUMBER OF ELECTRONS:      16+   16-
 CONVERGENCE THRESHOLDS:    1.00E-05 (Density)    1.00E-07 (Energy)
 MAX. NUMBER OF ITERATIONS:       60
 INTERPOLATION TYPE:            DIIS
 INTERPOLATION STEPS:              2 (START)      1 (STEP)
 LEVEL SHIFTS:                  0.00 (CLOSED)  0.00 (OPEN) 



 Orbital guess generated from atomic densities. Full valence occupancy:   18   4

 Molecular orbital dump at record        2100.2

 Initial alpha occupancy:  13   3
 Initial beta  occupancy:  13   3
 Wave function symmetry:    1

 ITERATION    DDIFF          GRAD             ENERGY        2-EL.EN.            DIPOLE MOMENTS         DIIS
    1      0.000D+00      0.000D+00      -263.65719523    425.987915   -1.38140    0.00003    0.00000    0
    2      0.000D+00      0.605D-02      -263.72002950    421.252569   -1.09516    0.00005    0.00000    1
    3      0.988D-02      0.395D-02      -263.75653743    423.500908   -1.09764    0.00009    0.00000    2
    4      0.389D-02      0.418D-03      -263.75709553    423.405178   -1.08769    0.00006    0.00000    3
    5      0.515D-03      0.133D-03      -263.75716139    423.354634   -1.08046    0.00008    0.00000    4
    6      0.195D-03      0.523D-04      -263.75717005    423.377836   -1.08032    0.00007    0.00000    5
    7      0.634D-04      0.105D-04      -263.75717075    423.370067   -1.07988    0.00007    0.00000    6
    8      0.201D-04      0.238D-05      -263.75717079    423.371686   -1.07995    0.00007    0.00000    7
    9      0.489D-05      0.838D-06      -263.75717079    423.371307   -1.07994    0.00007    0.00000    0

 Final occupancy:  13   3

 !RHF STATE 1.1 Energy               -263.757170788623
 Nuclear energy                       114.61054036
 One-electron energy                 -590.05336458
 Two-electron energy                  211.68565343
 Virial quotient                       -1.00114179
 !RHF STATE 1.1 Dipole moment          -1.07994286     0.00007382     0.00000000
 Dipole moment /Debye                  -2.74476118     0.00018763     0.00000000

 Orbital energies:

         1.1          2.1          3.1          4.1          5.1          6.1          7.1          8.1          9.1         10.1
    -20.613416   -20.613367   -20.587330   -11.432341    -1.499054    -1.444257    -1.380109    -0.772133    -0.744944    -0.718149

        11.1         12.1         13.1         14.1         15.1
     -0.711867    -0.577756    -0.514886     0.022856     0.046963

         1.2          2.2          3.2          4.2          5.2
     -0.683309    -0.537198    -0.510914     0.082810     0.164459


 **********************************************************************************************************************************
 DATASETS  * FILE   NREC   LENGTH (MB)   RECORD NAMES
              1      18        3.76       500      610      700      900      950      970     1000      129      960     1100   
                                          VAR    BASINP    GEOM    SYMINP    ZMAT    AOBASIS   BASIS     P2S    ABASIS      S 
                                         1400     1410     1200     1210     1080     1600     1650     1700   
                                           T        V       H0       H01     AOSYM     SMH    MOLCAS    OPER   

              2       3        0.96       700     1000     2100   
                                         GEOM     BASIS     RHF  

 PROGRAMS   *        TOTAL        HF       INT
 CPU TIMES  *        15.90      4.44     11.37
 REAL TIME  *        18.22 SEC
 DISK USED  *         2.92 GB      
 SF USED    *         0.12 MB      
 GA USED    *         0.00 MB       (max)       0.00 MB       (current)
 **********************************************************************************************************************************


1PROGRAM * CCSD (Closed-shell coupled cluster)     Authors: C. Hampel, H.-J. Werner, 1991, M. Deegan, P.J. Knowles, 1992

                                  CCSD-F12 implementation by  H.-J. Werner, 2007

                   Density fitting integral evaluation by F.R. Manby, 2003,2007, G. Knizia, 2010

 Basis set CC-PVTZ/JKFIT generated.      Number of basis functions:   376 
 Basis set AUG-CC-PVTZ/MP2FIT generated. Number of basis functions:   516 

 Convergence thresholds:  THRVAR = 1.00D-08  THRDEN = 1.00D-06

 CCSD(T)     terms to be evaluated (factor= 1.000)


 Number of core orbitals:           4 (   4   0 )
 Number of closed-shell orbitals:  12 (   9   3 )
 Number of external orbitals:     214 ( 139  75 )

 Molecular orbitals read from record     2100.2  Type=RHF/CANONICAL (state 1.1)

 MP2-F12 correlation treatment (H.-J. Werner, 2006)
 --------------------------------------------------

 Using MP2-F12 with ansatz 3C(FIX)

 Using projected zeroth-order Hamiltonian (+Z)

 FOCKRIB=T FOCKRIC=T FOCKRIP=T CABSP=T CABSA=T CABSK=T CABSF=T GBC=F EBC=F DMAT=T NOFIK=T NOPAO=1 SOLVE=-1  USEPAO=0
 EXCH_A= T EXCH_B= F EXCH_C= F EXCH_P= F
 
 Geminal basis:    OPTFULL  GEM_TYPE=SLATER  BETA=1.0  NGEM=6

 Optimizing Gaussian exponents for each gem_beta

 Geminal optimization for beta= 1.0000
 Weight function:   m=0, omega= 1.4646

 Augmented Hessian optimization of geminal fit. Trust ratio= 0.40000
 Convergence reached after   2 iterations. Final gradient= 8.24D-16, Step= 4.32D-06, Delta= 1.28D-09
 
 Alpha:                 0.19532     0.81920     2.85917     9.50073    35.69989   197.79328
 Coeff:                 0.27070     0.30552     0.18297     0.10986     0.06810     0.04224
 

 Symmetry turned off. Reference energy:       -263.757170788623

 All pairs explicitly correlated. Number of r12-pairs:           78
 
 AO(A)-basis ORBITAL           loaded. Number of functions:     230
 RI(R)-basis CC-PVTZ/JKFIT     loaded. Number of functions:     376
 DF-basis CC-PVTZ/JKFIT        loaded. Number of functions:     376

 Screening thresholds:   THRAO=  1.00D-10  THRMO=  1.00D-09  THRPROD=  1.00D-09
                         THRSW=  1.00D-05  THROV=  1.00D-12  THRF12=   1.00D-08

 CPU time for Fock operators                      1.06 sec
 
 Construction of ABS:
 Smallest eigenvalue of S          2.25E-04  (threshold= 1.00E-08)
 Ratio eigmin/eigmax               1.60E-06  (threshold= 1.00E-09)
 Smallest eigenvalue of S kept     2.25E-04  (threshold= 2.25E-04, 0 functions deleted, 376 kept)
 
 Construction of CABS:
 Smallest eigenvalue of S          2.21E-08  (threshold= 1.00E-08)
 Ratio eigmin/eigmax               2.21E-08  (threshold= 1.00E-09)
 Smallest eigenvalue of S kept     2.21E-08  (threshold= 2.21E-08, 0 functions deleted, 376 kept)
 
 CPU time for CABS singles                        0.18 sec

 CABS-singles contribution of  -0.01592410 patched into reference energy.
 New reference energy        -263.77309489
 
 AO(A)-basis ORBITAL           loaded. Number of functions:     230
 RI(R)-basis CC-PVTZ/JKFIT     loaded. Number of functions:     376
 DF-basis AUG-CC-PVTZ/MP2FIT   loaded. Number of functions:     516

 Screening thresholds:   THRAO=  1.00D-10  THRMO=  1.00D-09  THRPROD=  1.00D-09
                         THRSW=  1.00D-05  THROV=  1.00D-12  THRF12=   1.00D-08

 CPU time for 3-index integral evaluation         3.55 sec
 CPU time for first  half transformation          0.41 sec ( 7338.9 MFLOP/sec)
 CPU time for second half transformation          0.04 sec ( 2389.1 MFLOP/sec)
 CPU time for sorting                             0.14 sec
 CPU time for fitting                             0.05 sec (30481.0 MFLOP/sec)
 CPU time for tilde quantities                    0.22 sec ( 8404.0 MFLOP/sec)
 CPU time for assembly                            0.87 sec (26753.5 MFLOP/sec)
 CPU time for tranop_f12                          0.97 sec (29890.4 MFLOP/sec)
 CPU time for f12 integrals (total)               8.51 sec
 F12-matrices built in  3 passes.
 F12-matrices built in  3 passes.
 F12-matrices built in  3 passes.
 F12-matrices built in  3 passes.
 FC-matrix built in  3 passes.
 CPU time for f12 matrices (total)                0.57 sec

 Diagonal F12 approximation with fixed coefficients:  TSING= 0.500,  TTRIP= 0.250 (scaled by -1/beta)

 DF-MP2-F12 energy corrections:
 ------------------------------
 Approx.                                    Singlet             Triplet             Total
 DF-MP2-F12/3*C(DX,FIX)                -0.097573331275     -0.017182946463     -0.114756277738
 DF-MP2-F12/3*C(FIX)                   -0.079911141687     -0.013666677875     -0.093577819562
 DF-MP2-F12/3C(FIX)                    -0.080285617632     -0.013721756099     -0.094007373731

 DF-MP2-F12 correlation energies:
 --------------------------------
 Approx.                                    Singlet             Triplet             Ecorr            Total Energy
 DF-MP2                                -0.537936588409     -0.347559478315     -0.885496066724   -264.658590956444
 DF-MP2-F12/3*C(DX,FIX)                -0.635509919684     -0.364742424778     -1.000252344462   -264.773347234182
 DF-MP2-F12/3*C(FIX)                   -0.617847730096     -0.361226156190     -0.979073886286   -264.752168776006
 DF-MP2-F12/3C(FIX)                    -0.618222206041     -0.361281234414     -0.979503440455   -264.752598330175

 SCS-DF-MP2 energies (F_SING= 1.20000  F_TRIP= 0.62222  F_PARALLEL= 0.33333):
 ----------------------------------------------------------------------------
 SCS-DF-MP2                            -0.861783137042   -264.634878026762
 SCS-DF-MP2-F12/3*C(DX,FIX)            -0.989562745704   -264.762657635425
 SCS-DF-MP2-F12/3*C(FIX)               -0.966180217744   -264.739275107465
 SCS-DF-MP2-F12/3C(FIX)                -0.966663859773   -264.739758749493

 Symmetry restored.
 Symmetry transformation completed.

 Number of N-1 electron functions:              12
 Number of N-2 electron functions:              78
 Number of singly external CSFs:              1476
 Number of doubly external CSFs:           1686804
 Total number of CSFs:                     1688281

 Pair and operator lists are different

 Length of J-op  integral file:             466.42 MB
 Length of K-op  integral file:             526.62 MB
 Length of 3-ext integral record:             0.00 MB

 Memory could be reduced to 76.61 Mwords without degradation in triples

 Integral transformation finished. Total CPU:   4.97 sec, npass=  1  Memory used:  24.61 MW

 Reference energy:                   -263.77309489

 Adding F12 terms to K(Cij), methodcc=6,  factor=1.0

 ITER.      SQ.NORM     CORR.ENERGY   TOTAL ENERGY   ENERGY CHANGE        DEN1      VAR(S)    VAR(P)  DIIS     TIME
   1      1.20133828    -0.86703041  -264.64012529     0.01847337     0.04677352  0.72D-02  0.54D-02  1  1    19.06
   2      1.21552783    -0.86294090  -264.63603579     0.00408951    -0.02004724  0.93D-04  0.57D-03  2  2    22.43
   3      1.22090011    -0.86308330  -264.63617819    -0.00014241    -0.00231444  0.14D-03  0.31D-04  3  3    25.98
   4      1.22374357    -0.86294950  -264.63604439     0.00013380    -0.00141051  0.88D-05  0.40D-05  4  4    29.45
   5      1.22481502    -0.86291383  -264.63600872     0.00003568    -0.00036799  0.84D-06  0.29D-06  5  5    32.92
   6      1.22499492    -0.86288578  -264.63598067     0.00002805    -0.00000766  0.65D-07  0.32D-07  6  6    36.35
   7      1.22503356    -0.86288264  -264.63597753     0.00000314    -0.00000703  0.91D-08  0.45D-08  6  2    39.72
   8      1.22503569    -0.86288222  -264.63597711     0.00000042     0.00000191  0.73D-09  0.47D-09  6  1    43.13
   9      1.22503622    -0.86288238  -264.63597727    -0.00000016     0.00000094  0.10D-09  0.43D-10  6  4    46.53

 Norm of t1 vector:      0.10768172      S-energy:     0.00000013      T1 diagnostic:  0.01554252
                                                                       D1 diagnostic:  0.04805967

 Adding energy correction from Wij-K(Fij), methodcc=6  factor=1.0
 
  CCSD correlation energy              -0.862882375686
  MP2-F12 correction (uncoupled)       -0.092805890139
  C*T doubles correction               -0.001491702473
  f12b correction                       0.015442673079


 Total CPU time for triples:     78.66 sec


 RESULTS
 =======

  Reference energy                   -263.757170788623
  F12 singles correction               -0.015924101097

 F12 singles corrections added to reference energy

  New reference energy               -263.773094889720

  F12a singlet correction              -0.080477160870
  F12a triplet correction              -0.013820431742
  F12a total correction                -0.094297592612

 F12a corrections for ansatz F12/3C(FIX) added to CCSD energy
 
  CCSD-F12a singlet pair energy        -0.641396978724
  CCSD-F12a triplet pair energy        -0.315783117307
  CCSD-F12a correlation energy         -0.957179968298

  Triples (T) contribution             -0.038288484913
  Total correlation energy             -0.995468453212

  CCSD-F12a total energy             -264.730274858019
  CCSD[T]-F12a energy                -264.771114368893
  CCSD-T-F12a energy                 -264.767646076622
 !CCSD(T)-F12a total energy          -264.768563342932

 F12b corrections for ansatz F12/3C(FIX) added to CCSD(T)-F12a energy

  CCSD-F12b singlet pair energy        -0.627209762823
  CCSD-F12b triplet pair energy        -0.314527660130
  CCSD-F12b correlation energy         -0.941737295220

  Triples (T) contribution             -0.038288484913
  Total correlation energy             -0.980025780133

  CCSD-F12b total energy             -264.714832184940
  CCSD[T]-F12b energy                -264.755671695815
  CCSD-T-F12b energy                 -264.752203403543
 !CCSD(T)-F12b total energy          -264.753120669854

 Timing summary (sec):

 STEP                 CPU(USER)    SYS     CPU(TOT)    WALL
 Transformation          5.00      0.66      5.66      5.65
 CCSD iterations        30.66      1.96     32.62     32.62
 Triples                78.66      1.55     80.21     80.20
 MP2-F12                10.89      1.61     12.50     12.53
 F12b energy             2.27      0.06      2.33      2.34

 Program statistics:

 Available memory in ccsd:                99998934
 Min. memory needed in ccsd:               4458306
 Max. memory used in ccsd:                 5958390
 Max. memory used in cckext:               6352469 (10 integral passes)



 **********************************************************************************************************************************
 DATASETS  * FILE   NREC   LENGTH (MB)   RECORD NAMES
              1      20      269.66       500      610      700      900      950      970     1000      129      960     1100   
                                          VAR    BASINP    GEOM    SYMINP    ZMAT    AOBASIS   BASIS     P2S    ABASIS      S 
                                         1400     1410     1200     1210     1080     1600     1650     1700      960(1)  1380   
                                           T        V       H0       H01     AOSYM     SMH    MOLCAS    OPER    ABASIS    JKOP   

              2       5        1.55       700     1000     2100     7360     7350   
                                         GEOM     BASIS     RHF    F12ABS    EF12   

 PROGRAMS   *        TOTAL   CCSD(T)        HF       INT
 CPU TIMES  *       143.40    127.50      4.44     11.37
 REAL TIME  *       151.87 SEC
 DISK USED  *         3.36 GB      
 SF USED    *         1.53 GB      
 GA USED    *         2.40 MB       (max)       0.00 MB       (current)
 **********************************************************************************************************************************

     CCSD(T)-F12        HF-SCF  
   -264.75312067   -263.75717079
 **********************************************************************************************************************************
 Variable memory released
