
 Primary working directories    : /scratch/kee
 Secondary working directories  : /scratch/kee
 Wavefunction directory         : /home/kee/wfu/
 Main file repository           : /scratch/kee/

 ARCHNAME  : Linux/x86_64
 FC        : /opt/intel/composer_xe_2015.0.090/bin/intel64/ifort
 FCVERSION : 15.0.0
 BLASLIB   : -L/opt/intel/mkl/lib/intel64 -lmkl_intel_ilp64 -lmkl_sequential -lmkl_core
 id        : emory

 Nodes     nprocs
 node19       3
 Number of processes for MPI-2 version of Molpro:   nprocs(total)=    4   nprocs(compute)=    3   nprocs(helper)=    1
 ga_uses_ma=false, calling ma_init with nominal heap.
 GA-space will be limited to   8.0 MW (determined by -G option)

 Using customized tuning parameters: mindgm=7; mindgv=32; mindgc=1; mindgr=1; noblas=0; mincuda=1000; minvec=7
 default implementation of scratch files=sf  

 ***,co2h2o
 memory,100,m
 basis avtz
 geomtype = xyz
 geometry = {
 6
    -264.76489694
 O     0.82869278    1.16169550    0.00000000
 O     0.82658011   -1.16233555    0.00000000
 O    -1.84123461    0.00073951    0.00000000
 H    -2.42486762    0.76133416    0.00000000
 H    -2.42459951   -0.76006241    0.00000000
 C     0.80876519   -0.00029961    0.00000000
 }
 hf
 ccsd(t)-f12
 ---

 Variables initialized (665), CPU time= 0.00 sec
 Commands  initialized (462), CPU time= 0.01 sec, 486 directives.
 Default parameters read. Elapsed time= 0.04 sec

 Checking input...
 Passed
1


                                         ***  PROGRAM SYSTEM MOLPRO  ***
                         Copyright, University College Cardiff Consultants Limited, 2008

                                    Version 2010.1 linked 9 Dec 2014 15:06:28 


 **********************************************************************************************************************************
 LABEL *   co2h2o                                                                        
 Linux-2.6.32-504.el6.x86_64/node19(x86_64) 64 bit mpp version                           DATE: 11-Dec-16          TIME: 23:32:38  
 **********************************************************************************************************************************

 Patch level:      19
 **********************************************************************************************************************************

 Variable memory set to  100000000 words,  buffer space   230000 words

 SETTING BASIS          =    AVTZ
 SETTING GEOMTYPE       =    XYZ

Geometry recognized as XYZ



 Recomputing integrals since basis changed


 Using spherical harmonics

 Library entry O      S aug-cc-pVTZ          selected for orbital group  1
 Library entry O      P aug-cc-pVTZ          selected for orbital group  1
 Library entry O      D aug-cc-pVTZ          selected for orbital group  1
 Library entry O      F aug-cc-pVTZ          selected for orbital group  1
 Library entry H      S aug-cc-pVTZ          selected for orbital group  2
 Library entry H      P aug-cc-pVTZ          selected for orbital group  2
 Library entry H      D aug-cc-pVTZ          selected for orbital group  2
 Library entry C      S aug-cc-pVTZ          selected for orbital group  3
 Library entry C      P aug-cc-pVTZ          selected for orbital group  3
 Library entry C      D aug-cc-pVTZ          selected for orbital group  3
 Library entry C      F aug-cc-pVTZ          selected for orbital group  3

1PROGRAM * SEWARD (Integral evaluation for generally contracted gaussian basis sets)     Author: Roland Lindh, 1990

 Geometry written to block  1 of record 700


 Point group  Cs  



 ATOMIC COORDINATES

 NR  ATOM    CHARGE       X              Y              Z

   1  O       8.00    1.566002401    2.195286343    0.000000000
   2  O       8.00    1.562010034   -2.196495862    0.000000000
   3  O       8.00   -3.479429157    0.001397471    0.000000000
   4  H       1.00   -4.582335707    1.438713057    0.000000000
   5  H       1.00   -4.581829052   -1.436309798    0.000000000
   6  C       6.00    1.528344714   -0.000566181    0.000000000

 Bond lengths in Bohr (Angstrom)

 1-6  2.196175405  2-6  2.196187724  3-4  1.811706088  3-5  1.811708509
     (1.162165971)     (1.162172490)     (0.958713571)     (0.958714852)

 Bond angles

  1-6-2  178.13918425   4-3-5  105.01947441

 NUCLEAR CHARGE:                   32
 NUMBER OF PRIMITIVE AOS:         322
 NUMBER OF SYMMETRY AOS:          282
 NUMBER OF CONTRACTIONS:          230   ( 152A'  +  78A"  )
 NUMBER OF CORE ORBITALS:           4   (   4A'  +   0A"  )
 NUMBER OF VALENCE ORBITALS:       18   (  14A'  +   4A"  )


 NUCLEAR REPULSION ENERGY  107.05517693


 Eigenvalues of metric

         1 0.230E-03 0.257E-03 0.303E-03 0.321E-03 0.625E-03 0.790E-03 0.867E-03 0.144E-02
         2 0.302E-02 0.346E-02 0.511E-02 0.119E-01 0.127E-01 0.256E-01 0.290E-01 0.292E-01


 Contracted 2-electron integrals neglected if value below      1.0D-11
 AO integral compression algorithm  1   Integral accuracy      1.0D-11

     755.237 MB (compressed) written to integral file ( 45.5%)

     Node minimum: 207.356 MB, node maximum: 296.223 MB


 NUMBER OF SORTED TWO-ELECTRON INTEGRALS:   59950380.     BUFFER LENGTH:  32768
 NUMBER OF SEGMENTS:   4  SEGMENT LENGTH:   15995235      RECORD LENGTH: 524288

 Memory used in sort:      16.55 MW

 SORT1 READ   207531521. AND WROTE    55778234. INTEGRALS IN    162 RECORDS. CPU TIME:     5.66 SEC, REAL TIME:     6.44 SEC
 SORT2 READ   167829826. AND WROTE   179836431. INTEGRALS IN   2880 RECORDS. CPU TIME:     1.71 SEC, REAL TIME:     2.50 SEC

 Node minimum:    59940574.  Node maximum:    59950380. integrals

 OPERATOR DM      FOR CENTER  0  COORDINATES:    0.000000    0.000000    0.000000


 **********************************************************************************************************************************
 DATASETS  * FILE   NREC   LENGTH (MB)   RECORD NAMES
              1      18        3.74       500      610      700      900      950      970     1000      129      960     1100   
                                          VAR    BASINP    GEOM    SYMINP    ZMAT    AOBASIS   BASIS     P2S    ABASIS      S 
                                         1400     1410     1200     1210     1080     1600     1650     1700   
                                           T        V       H0       H01     AOSYM     SMH    MOLCAS    OPER   

 PROGRAMS   *        TOTAL       INT
 CPU TIMES  *        14.49     14.42
 REAL TIME  *        16.36 SEC
 DISK USED  *         2.79 GB      
 GA USED    *         0.00 MB       (max)       0.00 MB       (current)
 **********************************************************************************************************************************

1PROGRAM * RHF-SCF (CLOSED SHELL)       Authors: W. Meyer, H.-J. Werner


 NUMBER OF ELECTRONS:      16+   16-
 CONVERGENCE THRESHOLDS:    1.00E-05 (Density)    1.00E-07 (Energy)
 MAX. NUMBER OF ITERATIONS:       60
 INTERPOLATION TYPE:            DIIS
 INTERPOLATION STEPS:              2 (START)      1 (STEP)
 LEVEL SHIFTS:                  0.00 (CLOSED)  0.00 (OPEN) 



 Orbital guess generated from atomic densities. Full valence occupancy:   18   4

 Molecular orbital dump at record        2100.2

 Initial alpha occupancy:  13   3
 Initial beta  occupancy:  13   3
 Wave function symmetry:    1

 ITERATION    DDIFF          GRAD             ENERGY        2-EL.EN.            DIPOLE MOMENTS         DIIS
    1      0.000D+00      0.000D+00      -263.66957096    410.576017   -1.23932   -0.00008    0.00000    0
    2      0.000D+00      0.612D-02      -263.73262095    405.841036   -0.90922   -0.00003    0.00000    1
    3      0.988D-02      0.406D-02      -263.77140174    408.276237   -0.96254   -0.00001    0.00000    2
    4      0.398D-02      0.408D-03      -263.77191155    408.109092   -0.96004   -0.00002    0.00000    3
    5      0.494D-03      0.122D-03      -263.77197107    408.088487   -0.95478   -0.00002    0.00000    4
    6      0.186D-03      0.499D-04      -263.77197893    408.107166   -0.95535   -0.00002    0.00000    5
    7      0.620D-04      0.111D-04      -263.77197965    408.098657   -0.95497   -0.00002    0.00000    6
    8      0.201D-04      0.249D-05      -263.77197970    408.100115   -0.95501   -0.00002    0.00000    7
    9      0.518D-05      0.834D-06      -263.77197970    408.099847   -0.95500   -0.00002    0.00000    0

 Final occupancy:  13   3

 !RHF STATE 1.1 Energy               -263.771979699166
 Nuclear energy                       107.05517693
 One-electron energy                 -574.87708005
 Two-electron energy                  204.04992342
 Virial quotient                       -1.00173448
 !RHF STATE 1.1 Dipole moment          -0.95499892    -0.00001815     0.00000000
 Dipole moment /Debye                  -2.42720615    -0.00004613     0.00000000

 Orbital energies:

         1.1          2.1          3.1          4.1          5.1          6.1          7.1          8.1          9.1         10.1
    -20.627954   -20.627908   -20.580092   -11.439456    -1.506751    -1.453873    -1.367305    -0.778746    -0.732127    -0.721129

        11.1         12.1         13.1         14.1         15.1
     -0.697355    -0.595550    -0.522302     0.024868     0.047597

         1.2          2.2          3.2          4.2          5.2
     -0.691393    -0.525207    -0.521470     0.082907     0.168526


 **********************************************************************************************************************************
 DATASETS  * FILE   NREC   LENGTH (MB)   RECORD NAMES
              1      18        3.76       500      610      700      900      950      970     1000      129      960     1100   
                                          VAR    BASINP    GEOM    SYMINP    ZMAT    AOBASIS   BASIS     P2S    ABASIS      S 
                                         1400     1410     1200     1210     1080     1600     1650     1700   
                                           T        V       H0       H01     AOSYM     SMH    MOLCAS    OPER   

              2       3        0.96       700     1000     2100   
                                         GEOM     BASIS     RHF  

 PROGRAMS   *        TOTAL        HF       INT
 CPU TIMES  *        21.93      7.44     14.42
 REAL TIME  *        24.37 SEC
 DISK USED  *         2.81 GB      
 SF USED    *         0.12 MB      
 GA USED    *         0.00 MB       (max)       0.00 MB       (current)
 **********************************************************************************************************************************


1PROGRAM * CCSD (Closed-shell coupled cluster)     Authors: C. Hampel, H.-J. Werner, 1991, M. Deegan, P.J. Knowles, 1992

                                  CCSD-F12 implementation by  H.-J. Werner, 2007

                   Density fitting integral evaluation by F.R. Manby, 2003,2007, G. Knizia, 2010

 Basis set CC-PVTZ/JKFIT generated.      Number of basis functions:   376 
 Basis set AUG-CC-PVTZ/MP2FIT generated. Number of basis functions:   516 

 Convergence thresholds:  THRVAR = 1.00D-08  THRDEN = 1.00D-06

 CCSD(T)     terms to be evaluated (factor= 1.000)


 Number of core orbitals:           4 (   4   0 )
 Number of closed-shell orbitals:  12 (   9   3 )
 Number of external orbitals:     214 ( 139  75 )

 Molecular orbitals read from record     2100.2  Type=RHF/CANONICAL (state 1.1)

 MP2-F12 correlation treatment (H.-J. Werner, 2006)
 --------------------------------------------------

 Using MP2-F12 with ansatz 3C(FIX)

 Using projected zeroth-order Hamiltonian (+Z)

 FOCKRIB=T FOCKRIC=T FOCKRIP=T CABSP=T CABSA=T CABSK=T CABSF=T GBC=F EBC=F DMAT=T NOFIK=T NOPAO=1 SOLVE=-1  USEPAO=0
 EXCH_A= T EXCH_B= F EXCH_C= F EXCH_P= F
 
 Geminal basis:    OPTFULL  GEM_TYPE=SLATER  BETA=1.0  NGEM=6

 Optimizing Gaussian exponents for each gem_beta

 Geminal optimization for beta= 1.0000
 Weight function:   m=0, omega= 1.4646

 Augmented Hessian optimization of geminal fit. Trust ratio= 0.40000
 Convergence reached after   2 iterations. Final gradient= 8.24D-16, Step= 4.32D-06, Delta= 1.28D-09
 
 Alpha:                 0.19532     0.81920     2.85917     9.50073    35.69989   197.79328
 Coeff:                 0.27070     0.30552     0.18297     0.10986     0.06810     0.04224
 

 Symmetry turned off. Reference energy:       -263.771979699165

 All pairs explicitly correlated. Number of r12-pairs:           78
 
 AO(A)-basis ORBITAL           loaded. Number of functions:     230
 RI(R)-basis CC-PVTZ/JKFIT     loaded. Number of functions:     376
 DF-basis CC-PVTZ/JKFIT        loaded. Number of functions:     376

 Screening thresholds:   THRAO=  1.00D-10  THRMO=  1.00D-09  THRPROD=  1.00D-09
                         THRSW=  1.00D-05  THROV=  1.00D-12  THRF12=   1.00D-08

 CPU time for Fock operators                      1.95 sec
 
 Construction of ABS:
 Smallest eigenvalue of S          2.46E-04  (threshold= 1.00E-08)
 Ratio eigmin/eigmax               1.75E-06  (threshold= 1.00E-09)
 Smallest eigenvalue of S kept     2.46E-04  (threshold= 2.46E-04, 0 functions deleted, 376 kept)
 
 Construction of CABS:
 Smallest eigenvalue of S          2.25E-08  (threshold= 1.00E-08)
 Ratio eigmin/eigmax               2.25E-08  (threshold= 1.00E-09)
 Smallest eigenvalue of S kept     2.25E-08  (threshold= 2.25E-08, 0 functions deleted, 376 kept)
 
 CPU time for CABS singles                        0.35 sec

 CABS-singles contribution of  -0.01591244 patched into reference energy.
 New reference energy        -263.78789214
 
 AO(A)-basis ORBITAL           loaded. Number of functions:     230
 RI(R)-basis CC-PVTZ/JKFIT     loaded. Number of functions:     376
 DF-basis AUG-CC-PVTZ/MP2FIT   loaded. Number of functions:     516

 Screening thresholds:   THRAO=  1.00D-10  THRMO=  1.00D-09  THRPROD=  1.00D-09
                         THRSW=  1.00D-05  THROV=  1.00D-12  THRF12=   1.00D-08

 CPU time for 3-index integral evaluation         4.52 sec
 CPU time for first  half transformation          0.49 sec ( 5052.2 MFLOP/sec)
 CPU time for second half transformation          0.07 sec ( 1135.5 MFLOP/sec)
 CPU time for sorting                             0.18 sec
 CPU time for fitting                             0.10 sec (13674.9 MFLOP/sec)
 CPU time for tilde quantities                    0.12 sec (13295.0 MFLOP/sec)
 CPU time for assembly                            1.36 sec (12868.3 MFLOP/sec)
 CPU time for tranop_f12                          1.49 sec (14854.7 MFLOP/sec)
 CPU time for f12 integrals (total)              11.89 sec
 F12-matrices built in  3 passes.
 F12-matrices built in  3 passes.
 F12-matrices built in  3 passes.
 F12-matrices built in  3 passes.
 FC-matrix built in  3 passes.
 CPU time for f12 matrices (total)                0.64 sec

 Diagonal F12 approximation with fixed coefficients:  TSING= 0.500,  TTRIP= 0.250 (scaled by -1/beta)

 DF-MP2-F12 energy corrections:
 ------------------------------
 Approx.                                    Singlet             Triplet             Total
 DF-MP2-F12/3*C(DX,FIX)                -0.097370121836     -0.017013048252     -0.114383170088
 DF-MP2-F12/3*C(FIX)                   -0.079785696341     -0.013498604987     -0.093284301328
 DF-MP2-F12/3C(FIX)                    -0.080161328883     -0.013538771129     -0.093700100012

 DF-MP2-F12 correlation energies:
 --------------------------------
 Approx.                                    Singlet             Triplet             Ecorr            Total Energy
 DF-MP2                                -0.537843153462     -0.344843863664     -0.882687017126   -264.670579152301
 DF-MP2-F12/3*C(DX,FIX)                -0.635213275298     -0.361856911916     -0.997070187214   -264.784962322389
 DF-MP2-F12/3*C(FIX)                   -0.617628849802     -0.358342468651     -0.975971318453   -264.763863453628
 DF-MP2-F12/3C(FIX)                    -0.618004482345     -0.358382634793     -0.976387117138   -264.764279252313

 SCS-DF-MP2 energies (F_SING= 1.20000  F_TRIP= 0.62222  F_PARALLEL= 0.33333):
 ----------------------------------------------------------------------------
 SCS-DF-MP2                            -0.859981299323   -264.647873434498
 SCS-DF-MP2-F12/3*C(DX,FIX)            -0.987411342216   -264.775303477391
 SCS-DF-MP2-F12/3*C(FIX)               -0.964123266923   -264.752015402098
 SCS-DF-MP2-F12/3C(FIX)                -0.964599018241   -264.752491153416

 Symmetry restored.
 Symmetry transformation completed.

 Number of N-1 electron functions:              12
 Number of N-2 electron functions:              78
 Number of singly external CSFs:              1476
 Number of doubly external CSFs:           1686804
 Total number of CSFs:                     1688281

 Pair and operator lists are different

 Length of J-op  integral file:             466.42 MB
 Length of K-op  integral file:             526.62 MB
 Length of 3-ext integral record:             0.00 MB

 Memory could be reduced to 76.61 Mwords without degradation in triples

 Integral transformation finished. Total CPU:   6.23 sec, npass=  1  Memory used:  24.61 MW

 Reference energy:                   -263.78789214

 Adding F12 terms to K(Cij), methodcc=6,  factor=1.0

 ITER.      SQ.NORM     CORR.ENERGY   TOTAL ENERGY   ENERGY CHANGE        DEN1      VAR(S)    VAR(P)  DIIS     TIME
   1      1.20199798    -0.86454298  -264.65243511     0.01815675     0.04662283  0.72D-02  0.55D-02  1  1    24.96
   2      1.21627031    -0.86039860  -264.64829074     0.00414438    -0.02010173  0.90D-04  0.58D-03  2  2    28.08
   3      1.22163926    -0.86051660  -264.64840874    -0.00011800    -0.00235288  0.13D-03  0.32D-04  3  3    31.23
   4      1.22445374    -0.86038659  -264.64827872     0.00013002    -0.00141256  0.79D-05  0.40D-05  4  4    34.41
   5      1.22548657    -0.86034976  -264.64824190     0.00003682    -0.00036413  0.61D-06  0.28D-06  5  5    37.90
   6      1.22564960    -0.86032275  -264.64821488     0.00002702    -0.00000761  0.44D-07  0.25D-07  6  6    41.07
   7      1.22568125    -0.86031991  -264.64821204     0.00000284    -0.00000660  0.37D-08  0.39D-08  6  2    44.33
   8      1.22568154    -0.86031963  -264.64821177     0.00000028     0.00000208  0.42D-09  0.31D-09  6  1    47.65
   9      1.22568206    -0.86031970  -264.64821184    -0.00000007     0.00000069  0.44D-10  0.26D-10  6  4    50.82

 Norm of t1 vector:      0.10650038      S-energy:     0.00000004      T1 diagnostic:  0.01537201
                                                                       D1 diagnostic:  0.04599570

 Adding energy correction from Wij-K(Fij), methodcc=6  factor=1.0
 
  CCSD correlation energy              -0.860319701110
  MP2-F12 correction (uncoupled)       -0.092526114984
  C*T doubles correction               -0.001475955062
  f12b correction                       0.015418710301


 Total CPU time for triples:     79.66 sec


 RESULTS
 =======

  Reference energy                   -263.771979699166
  F12 singles correction               -0.015912436010

 F12 singles corrections added to reference energy

  New reference energy               -263.787892135176

  F12a singlet correction              -0.080354172108
  F12a triplet correction              -0.013647897937
  F12a total correction                -0.094002070045

 F12a corrections for ansatz F12/3C(FIX) added to CCSD energy
 
  CCSD-F12a singlet pair energy        -0.641674391694
  CCSD-F12a triplet pair energy        -0.312647415765
  CCSD-F12a correlation energy         -0.954321771156

  Triples (T) contribution             -0.037956122304
  Total correlation energy             -0.992277893459

  CCSD-F12a total energy             -264.742213906331
  CCSD[T]-F12a energy                -264.782710852658
  CCSD-T-F12a energy                 -264.779241699898
 !CCSD(T)-F12a total energy          -264.780170028635

 F12b corrections for ansatz F12/3C(FIX) added to CCSD(T)-F12a energy

  CCSD-F12b singlet pair energy        -0.627491121419
  CCSD-F12b triplet pair energy        -0.311411975740
  CCSD-F12b correlation energy         -0.938903060855

  Triples (T) contribution             -0.037956122304
  Total correlation energy             -0.976859183158

  CCSD-F12b total energy             -264.726795196030
  CCSD[T]-F12b energy                -264.767292142357
  CCSD-T-F12b energy                 -264.763822989597
 !CCSD(T)-F12b total energy          -264.764751318334

 Timing summary (sec):

 STEP                 CPU(USER)    SYS     CPU(TOT)    WALL
 Transformation          6.27      0.60      6.87      9.08
 CCSD iterations        29.01      1.81     30.82     30.80
 Triples                79.66      1.49     81.15     81.13
 MP2-F12                15.55      1.44     16.99     17.00
 F12b energy             2.15      0.05      2.20      2.19

 Program statistics:

 Available memory in ccsd:                99998934
 Min. memory needed in ccsd:               4458306
 Max. memory used in ccsd:                 5958390
 Max. memory used in cckext:               6352469 (10 integral passes)



 **********************************************************************************************************************************
 DATASETS  * FILE   NREC   LENGTH (MB)   RECORD NAMES
              1      20      269.66       500      610      700      900      950      970     1000      129      960     1100   
                                          VAR    BASINP    GEOM    SYMINP    ZMAT    AOBASIS   BASIS     P2S    ABASIS      S 
                                         1400     1410     1200     1210     1080     1600     1650     1700      960(1)  1380   
                                           T        V       H0       H01     AOSYM     SMH    MOLCAS    OPER    ABASIS    JKOP   

              2       5        1.55       700     1000     2100     7360     7350   
                                         GEOM     BASIS     RHF    F12ABS    EF12   

 PROGRAMS   *        TOTAL   CCSD(T)        HF       INT
 CPU TIMES  *       154.64    132.69      7.44     14.42
 REAL TIME  *       164.86 SEC
 DISK USED  *         3.25 GB      
 SF USED    *         1.53 GB      
 GA USED    *         2.40 MB       (max)       0.00 MB       (current)
 **********************************************************************************************************************************

     CCSD(T)-F12        HF-SCF  
   -264.76475132   -263.77197970
 **********************************************************************************************************************************
 Variable memory released
