
 Primary working directories    : /scratch/kee
 Secondary working directories  : /scratch/kee
 Wavefunction directory         : /home/kee/wfu/
 Main file repository           : /scratch/kee/

 ARCHNAME  : Linux/x86_64
 FC        : /opt/intel/composer_xe_2015.0.090/bin/intel64/ifort
 FCVERSION : 15.0.0
 BLASLIB   : -L/opt/intel/mkl/lib/intel64 -lmkl_intel_ilp64 -lmkl_sequential -lmkl_core
 id        : emory

 Nodes     nprocs
 node21       3
 Number of processes for MPI-2 version of Molpro:   nprocs(total)=    4   nprocs(compute)=    3   nprocs(helper)=    1
 ga_uses_ma=false, calling ma_init with nominal heap.
 GA-space will be limited to   8.0 MW (determined by -G option)

 Using customized tuning parameters: mindgm=7; mindgv=32; mindgc=1; mindgr=1; noblas=0; mincuda=1000; minvec=7
 default implementation of scratch files=sf  

 ***,co2h2o
 memory,100,m
 basis avtz
 geomtype = xyz
 geometry = {
 6
       0.00000000
 O     0.00032100    1.15989800    0.00000000
 O     0.00041400   -1.15989400    0.00000000
 O    13.57741119    9.96261113    3.57358556
 H    14.36896571   10.27156678    3.13123692
 H    13.89139700    9.48398338    4.34170779
 C     0.01953800    0.00000300    0.00000000
 }
 hf
 ccsd(t)-f12
 ---

 Variables initialized (665), CPU time= 0.00 sec
 Commands  initialized (462), CPU time= 0.01 sec, 486 directives.
 Default parameters read. Elapsed time= 0.03 sec

 Checking input...
 Passed
1


                                         ***  PROGRAM SYSTEM MOLPRO  ***
                         Copyright, University College Cardiff Consultants Limited, 2008

                                    Version 2010.1 linked 9 Dec 2014 15:06:28 


 **********************************************************************************************************************************
 LABEL *   co2h2o                                                                        
 Linux-2.6.32-504.el6.x86_64/node21(x86_64) 64 bit mpp version                           DATE: 15-Dec-16          TIME: 00:50:29  
 **********************************************************************************************************************************

 Patch level:      19
 **********************************************************************************************************************************

 Variable memory set to  100000000 words,  buffer space   230000 words

 SETTING BASIS          =    AVTZ
 SETTING GEOMTYPE       =    XYZ

Geometry recognized as XYZ



 Recomputing integrals since basis changed


 Using spherical harmonics

 Library entry O      S aug-cc-pVTZ          selected for orbital group  1
 Library entry O      P aug-cc-pVTZ          selected for orbital group  1
 Library entry O      D aug-cc-pVTZ          selected for orbital group  1
 Library entry O      F aug-cc-pVTZ          selected for orbital group  1
 Library entry H      S aug-cc-pVTZ          selected for orbital group  2
 Library entry H      P aug-cc-pVTZ          selected for orbital group  2
 Library entry H      D aug-cc-pVTZ          selected for orbital group  2
 Library entry C      S aug-cc-pVTZ          selected for orbital group  3
 Library entry C      P aug-cc-pVTZ          selected for orbital group  3
 Library entry C      D aug-cc-pVTZ          selected for orbital group  3
 Library entry C      F aug-cc-pVTZ          selected for orbital group  3

1PROGRAM * SEWARD (Integral evaluation for generally contracted gaussian basis sets)     Author: Roland Lindh, 1990

 Geometry written to block  1 of record 700


 Point group  C1  



 ATOMIC COORDINATES

 NR  ATOM    CHARGE       X              Y              Z

   1  O       8.00    0.000606602    2.191889560    0.000000000
   2  O       8.00    0.000782347   -2.191882001    0.000000000
   3  O       8.00   25.657588723   18.826606590    6.753098016
   4  H       1.00   27.153409984   19.410448155    5.917180231
   5  H       1.00   26.250935913   17.922131223    8.204638666
   6  C       6.00    0.036921469    0.000005669    0.000000000

 Bond lengths in Bohr (Angstrom)

 1-6  2.192184701  2-6  2.192185575  3-4  1.810279194  3-5  1.810278110
     (1.160054182)     (1.160054644)     (0.957958491)     (0.957957918)

 Bond angles

  1-6-2  178.10622893   4-3-5  105.10354935

 NUCLEAR CHARGE:                   32
 NUMBER OF PRIMITIVE AOS:         322
 NUMBER OF SYMMETRY AOS:          282
 NUMBER OF CONTRACTIONS:          230   ( 230A   )
 NUMBER OF CORE ORBITALS:           4   (   4A   )
 NUMBER OF VALENCE ORBITALS:       18   (  18A   )


 NUCLEAR REPULSION ENERGY   74.30830548


 Eigenvalues of metric

         1 0.348E-03 0.384E-03 0.392E-03 0.419E-03 0.896E-03 0.914E-03 0.167E-02 0.174E-02


 Contracted 2-electron integrals neglected if value below      1.0D-11
 AO integral compression algorithm  1   Integral accuracy      1.0D-11

     332.923 MB (compressed) written to integral file ( 32.2%)

     Node minimum: 81.527 MB, node maximum: 143.917 MB


 NUMBER OF SORTED TWO-ELECTRON INTEGRALS:  117629820.     BUFFER LENGTH:  32768
 NUMBER OF SEGMENTS:   8  SEGMENT LENGTH:   15997437      RECORD LENGTH: 524288

 Memory used in sort:      16.55 MW

 SORT1 READ   129658009. AND WROTE    23716866. INTEGRALS IN     73 RECORDS. CPU TIME:     1.59 SEC, REAL TIME:     1.85 SEC
 SORT2 READ    70654974. AND WROTE   352862895. INTEGRALS IN   1647 RECORDS. CPU TIME:     0.87 SEC, REAL TIME:     1.12 SEC

 Node minimum:   117612110.  Node maximum:   117629820. integrals

 OPERATOR DM      FOR CENTER  0  COORDINATES:    0.000000    0.000000    0.000000


 **********************************************************************************************************************************
 DATASETS  * FILE   NREC   LENGTH (MB)   RECORD NAMES
              1      18        4.62       500      610      700      900      950      970     1000      129      960     1100   
                                          VAR    BASINP    GEOM    SYMINP    ZMAT    AOBASIS   BASIS     P2S    ABASIS      S 
                                         1400     1410     1200     1210     1080     1600     1650     1700   
                                           T        V       H0       H01     AOSYM     SMH    MOLCAS    OPER   

 PROGRAMS   *        TOTAL       INT
 CPU TIMES  *         4.72      4.65
 REAL TIME  *         5.36 SEC
 DISK USED  *         1.23 GB      
 GA USED    *         0.00 MB       (max)       0.00 MB       (current)
 **********************************************************************************************************************************

1PROGRAM * RHF-SCF (CLOSED SHELL)       Authors: W. Meyer, H.-J. Werner


 NUMBER OF ELECTRONS:      16+   16-    SPACE SYMMETRY=1    SPIN SYMMETRY=Singlet 
 CONVERGENCE THRESHOLDS:    1.00E-05 (Density)    1.00E-07 (Energy)
 MAX. NUMBER OF ITERATIONS:       60
 INTERPOLATION TYPE:            DIIS
 INTERPOLATION STEPS:              2 (START)      1 (STEP)
 LEVEL SHIFTS:                  0.00 (CLOSED)  0.00 (OPEN) 



 Orbital guess generated from atomic densities. Full valence occupancy:   22

 Molecular orbital dump at record        2100.2

 ITERATION    DDIFF          GRAD             ENERGY        2-EL.EN.            DIPOLE MOMENTS         DIIS
    1      0.000D+00      0.000D+00      -263.66136551    344.063561    1.12568   -0.16409    0.31507    0
    2      0.000D+00      0.468D-02      -263.72655884    339.523898    0.64424   -0.09599    0.18685    1
    3      0.749D-02      0.317D-02      -263.76941412    342.071733    0.76516   -0.11249    0.21730    2
    4      0.307D-02      0.296D-03      -263.76990241    341.858053    0.76826   -0.11297    0.21857    3
    5      0.356D-03      0.858D-04      -263.76995881    341.862437    0.76315   -0.11231    0.21705    4
    6      0.132D-03      0.344D-04      -263.76996568    341.876139    0.76376   -0.11235    0.21727    5
    7      0.433D-04      0.849D-05      -263.76996638    341.867961    0.76334   -0.11232    0.21715    6
    8      0.141D-04      0.187D-05      -263.76996643    341.869241    0.76335   -0.11229    0.21715    7
    9      0.381D-05      0.656D-06      -263.76996643    341.869058    0.76332   -0.11231    0.21714    0

 Final occupancy:  16

 !RHF STATE 1.1 Energy               -263.769966432619
 Nuclear energy                        74.30830548
 One-electron energy                 -509.01280113
 Two-electron energy                  170.93452922
 Virial quotient                       -1.00173775
 !RHF STATE 1.1 Dipole moment           0.76331807    -0.11231177     0.21713943
 Dipole moment /Debye                   1.94003394    -0.28544934     0.55187723

 Orbital energies:

         1.1          2.1          3.1          4.1          5.1          6.1          7.1          8.1          9.1         10.1
    -20.652395   -20.652338   -20.567086   -11.460491    -1.531772    -1.478650    -1.352830    -0.800554    -0.743424    -0.718617

        11.1         12.1         13.1         14.1         15.1         16.1         17.1         18.1
     -0.715566    -0.715558    -0.583678    -0.544393    -0.544368    -0.510150     0.029448     0.047619


 **********************************************************************************************************************************
 DATASETS  * FILE   NREC   LENGTH (MB)   RECORD NAMES
              1      18        4.62       500      610      700      900      950      970     1000      129      960     1100   
                                          VAR    BASINP    GEOM    SYMINP    ZMAT    AOBASIS   BASIS     P2S    ABASIS      S 
                                         1400     1410     1200     1210     1080     1600     1650     1700   
                                           T        V       H0       H01     AOSYM     SMH    MOLCAS    OPER   

              2       3        1.44       700     1000     2100   
                                         GEOM     BASIS     RHF  

 PROGRAMS   *        TOTAL        HF       INT
 CPU TIMES  *        11.85      7.13      4.65
 REAL TIME  *        12.69 SEC
 DISK USED  *         1.26 GB      
 SF USED    *         0.21 MB      
 GA USED    *         0.00 MB       (max)       0.00 MB       (current)
 **********************************************************************************************************************************


1PROGRAM * CCSD (Closed-shell coupled cluster)     Authors: C. Hampel, H.-J. Werner, 1991, M. Deegan, P.J. Knowles, 1992

                                  CCSD-F12 implementation by  H.-J. Werner, 2007

                   Density fitting integral evaluation by F.R. Manby, 2003,2007, G. Knizia, 2010

 Basis set CC-PVTZ/JKFIT generated.      Number of basis functions:   376 
 Basis set AUG-CC-PVTZ/MP2FIT generated. Number of basis functions:   516 

 Convergence thresholds:  THRVAR = 1.00D-08  THRDEN = 1.00D-06

 CCSD(T)     terms to be evaluated (factor= 1.000)


 Number of core orbitals:           4 (   4 )
 Number of closed-shell orbitals:  12 (  12 )
 Number of external orbitals:     214 ( 214 )

 Molecular orbitals read from record     2100.2  Type=RHF/CANONICAL (state 1.1)

 MP2-F12 correlation treatment (H.-J. Werner, 2006)
 --------------------------------------------------

 Using MP2-F12 with ansatz 3C(FIX)

 Using projected zeroth-order Hamiltonian (+Z)

 FOCKRIB=T FOCKRIC=T FOCKRIP=T CABSP=T CABSA=T CABSK=T CABSF=T GBC=F EBC=F DMAT=T NOFIK=T NOPAO=1 SOLVE=-1  USEPAO=0
 EXCH_A= T EXCH_B= F EXCH_C= F EXCH_P= F
 
 Geminal basis:    OPTFULL  GEM_TYPE=SLATER  BETA=1.0  NGEM=6

 Optimizing Gaussian exponents for each gem_beta

 Geminal optimization for beta= 1.0000
 Weight function:   m=0, omega= 1.4646

 Augmented Hessian optimization of geminal fit. Trust ratio= 0.40000
 Convergence reached after   2 iterations. Final gradient= 8.24D-16, Step= 4.32D-06, Delta= 1.28D-09
 
 Alpha:                 0.19532     0.81920     2.85917     9.50073    35.69989   197.79328
 Coeff:                 0.27070     0.30552     0.18297     0.10986     0.06810     0.04224
 

 All pairs explicitly correlated. Number of r12-pairs:           78
 
 AO(A)-basis ORBITAL           loaded. Number of functions:     230
 RI(R)-basis CC-PVTZ/JKFIT     loaded. Number of functions:     376
 DF-basis CC-PVTZ/JKFIT        loaded. Number of functions:     376

 Screening thresholds:   THRAO=  1.00D-10  THRMO=  1.00D-09  THRPROD=  1.00D-09
                         THRSW=  1.00D-05  THROV=  1.00D-12  THRF12=   1.00D-08

 CPU time for Fock operators                      0.93 sec
 
 Construction of ABS:
 Smallest eigenvalue of S          2.57E-04  (threshold= 1.00E-08)
 Ratio eigmin/eigmax               1.83E-06  (threshold= 1.00E-09)
 Smallest eigenvalue of S kept     2.57E-04  (threshold= 2.57E-04, 0 functions deleted, 376 kept)
 
 Construction of CABS:
 Smallest eigenvalue of S          2.29E-08  (threshold= 1.00E-08)
 Ratio eigmin/eigmax               2.29E-08  (threshold= 1.00E-09)
 Smallest eigenvalue of S kept     2.29E-08  (threshold= 2.29E-08, 0 functions deleted, 376 kept)
 
 CPU time for CABS singles                        0.18 sec

 CABS-singles contribution of  -0.01596093 patched into reference energy.
 New reference energy        -263.78592737
 
 AO(A)-basis ORBITAL           loaded. Number of functions:     230
 RI(R)-basis CC-PVTZ/JKFIT     loaded. Number of functions:     376
 DF-basis AUG-CC-PVTZ/MP2FIT   loaded. Number of functions:     516

 Screening thresholds:   THRAO=  1.00D-10  THRMO=  1.00D-09  THRPROD=  1.00D-09
                         THRSW=  1.00D-05  THROV=  1.00D-12  THRF12=   1.00D-08

 CPU time for 3-index integral evaluation         1.57 sec
 CPU time for first  half transformation          0.12 sec ( 7615.2 MFLOP/sec)
 CPU time for second half transformation          0.02 sec ( 3017.3 MFLOP/sec)
 CPU time for sorting                             0.09 sec
 CPU time for fitting                             0.05 sec (27861.0 MFLOP/sec)
 CPU time for tilde quantities                    0.05 sec (36977.6 MFLOP/sec)
 CPU time for assembly                            0.87 sec (27158.4 MFLOP/sec)
 CPU time for tranop_f12                          0.99 sec (30349.0 MFLOP/sec)
 CPU time for f12 integrals (total)               6.06 sec
 F12-matrices built in  3 passes.
 F12-matrices built in  3 passes.
 F12-matrices built in  3 passes.
 F12-matrices built in  3 passes.
 FC-matrix built in  3 passes.
 CPU time for f12 matrices (total)                0.55 sec

 Diagonal F12 approximation with fixed coefficients:  TSING= 0.500,  TTRIP= 0.250 (scaled by -1/beta)

 DF-MP2-F12 energy corrections:
 ------------------------------
 Approx.                                    Singlet             Triplet             Total
 DF-MP2-F12/3*C(DX,FIX)                -0.097505199088     -0.016950859006     -0.114456058094
 DF-MP2-F12/3*C(FIX)                   -0.079905318890     -0.013407893098     -0.093313211988
 DF-MP2-F12/3C(FIX)                    -0.080263697683     -0.013430836121     -0.093694533803

 DF-MP2-F12 correlation energies:
 --------------------------------
 Approx.                                    Singlet             Triplet             Ecorr            Total Energy
 DF-MP2                                -0.537336843025     -0.342772461498     -0.880109304523   -264.666036670315
 DF-MP2-F12/3*C(DX,FIX)                -0.634842042113     -0.359723320503     -0.994565362616   -264.780492728408
 DF-MP2-F12/3*C(FIX)                   -0.617242161915     -0.356180354596     -0.973422516511   -264.759349882303
 DF-MP2-F12/3C(FIX)                    -0.617600540708     -0.356203297618     -0.973803838326   -264.759731204118

 SCS-DF-MP2 energies (F_SING= 1.20000  F_TRIP= 0.62222  F_PARALLEL= 0.33333):
 ----------------------------------------------------------------------------
 SCS-DF-MP2                            -0.858084854340   -264.644012220132
 SCS-DF-MP2-F12/3*C(DX,FIX)            -0.985638294404   -264.771565660196
 SCS-DF-MP2-F12/3*C(FIX)               -0.962313926046   -264.748241291838
 SCS-DF-MP2-F12/3C(FIX)                -0.962758256256   -264.748685622048
 Symmetry transformation completed.

 Number of N-1 electron functions:              12
 Number of N-2 electron functions:              78
 Number of singly external CSFs:              2568
 Number of doubly external CSFs:           3298596
 Total number of CSFs:                     3301165

 Pair and operator lists are different

 Length of J-op  integral file:             474.22 MB
 Length of K-op  integral file:             572.29 MB
 Length of 3-ext integral record:             0.00 MB

 For full I/O caching in triples, increase memory by 50.81 Mwords to 151.09 Mwords.

 Integral transformation finished. Total CPU:  12.54 sec, npass=  1  Memory used:  87.46 MW

 Reference energy:                   -263.78592737

 Adding F12 terms to K(Cij), methodcc=6,  factor=1.0

 ITER.      SQ.NORM     CORR.ENERGY   TOTAL ENERGY   ENERGY CHANGE        DEN1      VAR(S)    VAR(P)  DIIS     TIME
   1      1.20175990    -0.86219710  -264.64812447     0.01792862     0.04638065  0.71D-02  0.55D-02  1  1    28.81
   2      1.21598452    -0.85801314  -264.64394051     0.00418395    -0.02004539  0.85D-04  0.58D-03  2  2    37.47
   3      1.22129516    -0.85810727  -264.64403464    -0.00009413    -0.00235186  0.13D-03  0.32D-04  3  3    45.88
   4      1.22406542    -0.85798220  -264.64390957     0.00012507    -0.00140053  0.74D-05  0.40D-05  4  4    54.02
   5      1.22507891    -0.85794521  -264.64387258     0.00003699    -0.00036149  0.54D-06  0.28D-06  5  5    62.12
   6      1.22523841    -0.85791876  -264.64384613     0.00002645    -0.00000787  0.39D-07  0.23D-07  6  6    70.32
   7      1.22526722    -0.85791638  -264.64384375     0.00000238    -0.00000613  0.25D-08  0.39D-08  6  4    78.78
   8      1.22526751    -0.85791590  -264.64384327     0.00000048     0.00000192  0.38D-09  0.26D-09  6  1    87.32
   9      1.22526811    -0.85791597  -264.64384333    -0.00000007     0.00000055  0.25D-10  0.21D-10  6  2    95.86

 Norm of t1 vector:      0.10538113      S-energy:    -0.00000002      T1 diagnostic:  0.01521046
                                                                       D1 diagnostic:  0.04464238

 Adding energy correction from Wij-K(Fij), methodcc=6  factor=1.0
 
  CCSD correlation energy              -0.857915969049
  MP2-F12 correction (uncoupled)       -0.092542874985
  C*T doubles correction               -0.001473678367
  f12b correction                       0.015403110343


 Total CPU time for triples:    245.57 sec


 RESULTS
 =======

  Reference energy                   -263.769966432620
  F12 singles correction               -0.015960933173

 F12 singles corrections added to reference energy

  New reference energy               -263.785927365792

  F12a singlet correction              -0.080466400953
  F12a triplet correction              -0.013550152398
  F12a total correction                -0.094016553352

 F12a corrections for ansatz F12/3C(FIX) added to CCSD energy
 
  CCSD-F12a singlet pair energy        -0.641547456838
  CCSD-F12a triplet pair energy        -0.310385045784
  CCSD-F12a correlation energy         -0.951932522400

  Triples (T) contribution             -0.037509327295
  Total correlation energy             -0.989441849696

  CCSD-F12a total energy             -264.737859888193
  CCSD[T]-F12a energy                -264.777886009689
  CCSD-T-F12a energy                 -264.774439493972
 !CCSD(T)-F12a total energy          -264.775369215488

 F12b corrections for ansatz F12/3C(FIX) added to CCSD(T)-F12a energy

  CCSD-F12b singlet pair energy        -0.627368239770
  CCSD-F12b triplet pair energy        -0.309161152508
  CCSD-F12b correlation energy         -0.936529412057

  Triples (T) contribution             -0.037509327295
  Total correlation energy             -0.974038739353

  CCSD-F12b total energy             -264.722456777850
  CCSD[T]-F12b energy                -264.762482899346
  CCSD-T-F12b energy                 -264.759036383629
 !CCSD(T)-F12b total energy          -264.759966105145

 Timing summary (sec):

 STEP                 CPU(USER)    SYS     CPU(TOT)    WALL
 Transformation         12.64      1.15     13.79     14.23
 CCSD iterations        74.95      4.68     79.63     79.61
 Triples               245.57      3.74    249.31    249.28
 MP2-F12                 8.30      1.26      9.56      9.55
 F12b energy             4.66      0.08      4.74      4.74

 Program statistics:

 Available memory in ccsd:                99998934
 Min. memory needed in ccsd:               8644845
 Max. memory used in ccsd:                11598633
 Max. memory used in cckext:               8768967 (10 integral passes)



 **********************************************************************************************************************************
 DATASETS  * FILE   NREC   LENGTH (MB)   RECORD NAMES
              1      20      527.84       500      610      700      900      950      970     1000      129      960     1100   
                                          VAR    BASINP    GEOM    SYMINP    ZMAT    AOBASIS   BASIS     P2S    ABASIS      S 
                                         1400     1410     1200     1210     1080     1600     1650     1700      960(1)  1380   
                                           T        V       H0       H01     AOSYM     SMH    MOLCAS    OPER    ABASIS    JKOP   

              2       5        2.50       700     1000     2100     7360     7350   
                                         GEOM     BASIS     RHF    F12ABS    EF12   

 PROGRAMS   *        TOTAL   CCSD(T)        HF       INT
 CPU TIMES  *       358.08    346.23      7.13      4.65
 REAL TIME  *       370.48 SEC
 DISK USED  *         2.13 GB      
 SF USED    *         1.91 GB      
 GA USED    *         2.40 MB       (max)       0.00 MB       (current)
 **********************************************************************************************************************************

     CCSD(T)-F12        HF-SCF  
   -264.75996611   -263.76996643
 **********************************************************************************************************************************
 Variable memory released
