
 Primary working directories    : /scratch/kee
 Secondary working directories  : /scratch/kee
 Wavefunction directory         : /home/kee/wfu/
 Main file repository           : /scratch/kee/

 ARCHNAME  : Linux/x86_64
 FC        : /opt/intel/composer_xe_2015.0.090/bin/intel64/ifort
 FCVERSION : 15.0.0
 BLASLIB   : -L/opt/intel/mkl/lib/intel64 -lmkl_intel_ilp64 -lmkl_sequential -lmkl_core
 id        : emory

 Nodes     nprocs
 node18       3
 Number of processes for MPI-2 version of Molpro:   nprocs(total)=    4   nprocs(compute)=    3   nprocs(helper)=    1
 ga_uses_ma=false, calling ma_init with nominal heap.
 GA-space will be limited to   8.0 MW (determined by -G option)

 Using customized tuning parameters: mindgm=7; mindgv=32; mindgc=1; mindgr=1; noblas=0; mincuda=1000; minvec=7
 default implementation of scratch files=sf  

 ***,co2h2o
 memory,100,m
 basis avtz
 geomtype = xyz
 geometry = {
 6
       0.00000000
 O     0.02747900    1.16001200    0.00000000
 O    -0.00936500   -1.16396300    0.00000000
 O     7.32530883   -0.03201188    0.00000000
 H     7.71440383    0.40926212    0.75746400
 H     7.71440383    0.40926212   -0.75746400
 C     0.02536600   -0.00312200    0.00000000
 }
 hf
 ccsd(t)-f12
 ---

 Variables initialized (665), CPU time= 0.00 sec
 Commands  initialized (462), CPU time= 0.01 sec, 486 directives.
 Default parameters read. Elapsed time= 0.04 sec

 Checking input...
 Passed
1


                                         ***  PROGRAM SYSTEM MOLPRO  ***
                         Copyright, University College Cardiff Consultants Limited, 2008

                                    Version 2010.1 linked 9 Dec 2014 15:06:28 


 **********************************************************************************************************************************
 LABEL *   co2h2o                                                                        
 Linux-2.6.32-504.el6.x86_64/node18(x86_64) 64 bit mpp version                           DATE: 14-Dec-16          TIME: 23:48:35  
 **********************************************************************************************************************************

 Patch level:      19
 **********************************************************************************************************************************

 Variable memory set to  100000000 words,  buffer space   230000 words

 SETTING BASIS          =    AVTZ
 SETTING GEOMTYPE       =    XYZ

Geometry recognized as XYZ



 Recomputing integrals since basis changed


 Using spherical harmonics

 Library entry O      S aug-cc-pVTZ          selected for orbital group  1
 Library entry O      P aug-cc-pVTZ          selected for orbital group  1
 Library entry O      D aug-cc-pVTZ          selected for orbital group  1
 Library entry O      F aug-cc-pVTZ          selected for orbital group  1
 Library entry H      S aug-cc-pVTZ          selected for orbital group  2
 Library entry H      P aug-cc-pVTZ          selected for orbital group  2
 Library entry H      D aug-cc-pVTZ          selected for orbital group  2
 Library entry C      S aug-cc-pVTZ          selected for orbital group  3
 Library entry C      P aug-cc-pVTZ          selected for orbital group  3
 Library entry C      D aug-cc-pVTZ          selected for orbital group  3
 Library entry C      F aug-cc-pVTZ          selected for orbital group  3

1PROGRAM * SEWARD (Integral evaluation for generally contracted gaussian basis sets)     Author: Roland Lindh, 1990

 Geometry written to block  1 of record 700


 Point group  Cs  



 ATOMIC COORDINATES

 NR  ATOM    CHARGE       X              Y              Z

   1  O       8.00    0.051927784    2.192104989    0.000000000
   2  O       8.00   -0.017697285   -2.199571297    0.000000000
   3  O       8.00   13.842827517   -0.060493686    0.000000000
   4  H       1.00   14.578110506    0.773393323    1.431399514
   5  H       1.00   14.578110506    0.773393323   -1.431399514
   6  C       6.00    0.047934793   -0.005899725    0.000000000

 Bond lengths in Bohr (Angstrom)

 1-6  2.198008341  2-6  2.194653170  3-4  1.812432947  3-5  1.812432947
     (1.163135919)     (1.161360439)     (0.959098208)     (0.959098208)

 Bond angles

  1-6-2  178.39037465   4-3-5  104.32746287

 NUCLEAR CHARGE:                   32
 NUMBER OF PRIMITIVE AOS:         322
 NUMBER OF SYMMETRY AOS:          282
 NUMBER OF CONTRACTIONS:          230   ( 143A'  +  87A"  )
 NUMBER OF CORE ORBITALS:           4   (   4A'  +   0A"  )
 NUMBER OF VALENCE ORBITALS:       18   (  13A'  +   5A"  )


 NUCLEAR REPULSION ENERGY   83.06162948


 Eigenvalues of metric

         1 0.349E-03 0.379E-03 0.404E-03 0.901E-03 0.922E-03 0.175E-02 0.181E-02 0.317E-02
         2 0.395E-03 0.166E-02 0.318E-02 0.348E-02 0.509E-02 0.622E-02 0.100E-01 0.125E-01


 Contracted 2-electron integrals neglected if value below      1.0D-11
 AO integral compression algorithm  1   Integral accuracy      1.0D-11

     337.117 MB (compressed) written to integral file ( 23.3%)

     Node minimum: 111.149 MB, node maximum: 114.557 MB


 NUMBER OF SORTED TWO-ELECTRON INTEGRALS:   59530350.     BUFFER LENGTH:  32768
 NUMBER OF SEGMENTS:   4  SEGMENT LENGTH:   15999984      RECORD LENGTH: 524288

 Memory used in sort:      16.56 MW

 SORT1 READ   180857673. AND WROTE    23110221. INTEGRALS IN     68 RECORDS. CPU TIME:     1.89 SEC, REAL TIME:     2.12 SEC
 SORT2 READ    69677096. AND WROTE   178576926. INTEGRALS IN   1275 RECORDS. CPU TIME:     0.70 SEC, REAL TIME:     0.93 SEC

 Node minimum:    59520934.  Node maximum:    59530350. integrals

 OPERATOR DM      FOR CENTER  0  COORDINATES:    0.000000    0.000000    0.000000


 **********************************************************************************************************************************
 DATASETS  * FILE   NREC   LENGTH (MB)   RECORD NAMES
              1      18        3.71       500      610      700      900      950      970     1000      129      960     1100   
                                          VAR    BASINP    GEOM    SYMINP    ZMAT    AOBASIS   BASIS     P2S    ABASIS      S 
                                         1400     1410     1200     1210     1080     1600     1650     1700   
                                           T        V       H0       H01     AOSYM     SMH    MOLCAS    OPER   

 PROGRAMS   *        TOTAL       INT
 CPU TIMES  *         4.85      4.78
 REAL TIME  *         5.51 SEC
 DISK USED  *         1.15 GB      
 GA USED    *         0.00 MB       (max)       0.00 MB       (current)
 **********************************************************************************************************************************

1PROGRAM * RHF-SCF (CLOSED SHELL)       Authors: W. Meyer, H.-J. Werner


 NUMBER OF ELECTRONS:      16+   16-
 CONVERGENCE THRESHOLDS:    1.00E-05 (Density)    1.00E-07 (Energy)
 MAX. NUMBER OF ITERATIONS:       60
 INTERPOLATION TYPE:            DIIS
 INTERPOLATION STEPS:              2 (START)      1 (STEP)
 LEVEL SHIFTS:                  0.00 (CLOSED)  0.00 (OPEN) 



 Orbital guess generated from atomic densities. Full valence occupancy:   17   5

 Molecular orbital dump at record        2100.2

 Initial alpha occupancy:  13   3
 Initial beta  occupancy:  13   3
 Wave function symmetry:    1

 ITERATION    DDIFF          GRAD             ENERGY        2-EL.EN.            DIPOLE MOMENTS         DIIS
    1      0.000D+00      0.000D+00      -263.66027936    361.687093    0.79962    0.84410    0.00000    0
    2      0.000D+00      0.642D-02      -263.72558659    357.115242    0.46179    0.49456    0.00000    1
    3      0.103D-01      0.436D-02      -263.76892896    359.676179    0.54730    0.57787    0.00000    2
    4      0.424D-02      0.410D-03      -263.76942428    359.463479    0.54926    0.58130    0.00000    3
    5      0.493D-03      0.119D-03      -263.76948236    359.466055    0.54570    0.57718    0.00000    4
    6      0.185D-03      0.482D-04      -263.76948954    359.480445    0.54613    0.57773    0.00000    5
    7      0.614D-04      0.118D-04      -263.76949027    359.472097    0.54584    0.57740    0.00000    6
    8      0.201D-04      0.260D-05      -263.76949032    359.473398    0.54584    0.57739    0.00000    7
    9      0.546D-05      0.878D-06      -263.76949033    359.473205    0.54583    0.57738    0.00000    0

 Final occupancy:  13   3

 !RHF STATE 1.1 Energy               -263.769490325215
 Nuclear energy                        83.06162948
 One-electron energy                 -526.56772255
 Two-electron energy                  179.73660275
 Virial quotient                       -1.00183319
 !RHF STATE 1.1 Dipole moment           0.54582509     0.57738239     0.00000000
 Dipole moment /Debye                   1.38725814     1.46746354     0.00000000

 Orbital energies:

         1.1          2.1          3.1          4.1          5.1          6.1          7.1          8.1          9.1         10.1
    -20.650740   -20.650345   -20.568418   -11.459372    -1.528166    -1.475066    -1.353593    -0.798459    -0.740694    -0.712193

        11.1         12.1         13.1         14.1         15.1
     -0.585808    -0.541871    -0.511092     0.027994     0.051060

         1.2          2.2          3.2          4.2          5.2
     -0.717281    -0.712248    -0.541913     0.046785     0.076277


 **********************************************************************************************************************************
 DATASETS  * FILE   NREC   LENGTH (MB)   RECORD NAMES
              1      18        3.72       500      610      700      900      950      970     1000      129      960     1100   
                                          VAR    BASINP    GEOM    SYMINP    ZMAT    AOBASIS   BASIS     P2S    ABASIS      S 
                                         1400     1410     1200     1210     1080     1600     1650     1700   
                                           T        V       H0       H01     AOSYM     SMH    MOLCAS    OPER   

              2       3        0.94       700     1000     2100   
                                         GEOM     BASIS     RHF  

 PROGRAMS   *        TOTAL        HF       INT
 CPU TIMES  *         8.23      3.38      4.78
 REAL TIME  *         9.06 SEC
 DISK USED  *         1.18 GB      
 SF USED    *         0.11 MB      
 GA USED    *         0.00 MB       (max)       0.00 MB       (current)
 **********************************************************************************************************************************


1PROGRAM * CCSD (Closed-shell coupled cluster)     Authors: C. Hampel, H.-J. Werner, 1991, M. Deegan, P.J. Knowles, 1992

                                  CCSD-F12 implementation by  H.-J. Werner, 2007

                   Density fitting integral evaluation by F.R. Manby, 2003,2007, G. Knizia, 2010

 Basis set CC-PVTZ/JKFIT generated.      Number of basis functions:   376 
 Basis set AUG-CC-PVTZ/MP2FIT generated. Number of basis functions:   516 

 Convergence thresholds:  THRVAR = 1.00D-08  THRDEN = 1.00D-06

 CCSD(T)     terms to be evaluated (factor= 1.000)


 Number of core orbitals:           4 (   4   0 )
 Number of closed-shell orbitals:  12 (   9   3 )
 Number of external orbitals:     214 ( 130  84 )

 Molecular orbitals read from record     2100.2  Type=RHF/CANONICAL (state 1.1)

 MP2-F12 correlation treatment (H.-J. Werner, 2006)
 --------------------------------------------------

 Using MP2-F12 with ansatz 3C(FIX)

 Using projected zeroth-order Hamiltonian (+Z)

 FOCKRIB=T FOCKRIC=T FOCKRIP=T CABSP=T CABSA=T CABSK=T CABSF=T GBC=F EBC=F DMAT=T NOFIK=T NOPAO=1 SOLVE=-1  USEPAO=0
 EXCH_A= T EXCH_B= F EXCH_C= F EXCH_P= F
 
 Geminal basis:    OPTFULL  GEM_TYPE=SLATER  BETA=1.0  NGEM=6

 Optimizing Gaussian exponents for each gem_beta

 Geminal optimization for beta= 1.0000
 Weight function:   m=0, omega= 1.4646

 Augmented Hessian optimization of geminal fit. Trust ratio= 0.40000
 Convergence reached after   2 iterations. Final gradient= 8.24D-16, Step= 4.32D-06, Delta= 1.28D-09
 
 Alpha:                 0.19532     0.81920     2.85917     9.50073    35.69989   197.79328
 Coeff:                 0.27070     0.30552     0.18297     0.10986     0.06810     0.04224
 

 Symmetry turned off. Reference energy:       -263.769490325215

 All pairs explicitly correlated. Number of r12-pairs:           78
 
 AO(A)-basis ORBITAL           loaded. Number of functions:     230
 RI(R)-basis CC-PVTZ/JKFIT     loaded. Number of functions:     376
 DF-basis CC-PVTZ/JKFIT        loaded. Number of functions:     376

 Screening thresholds:   THRAO=  1.00D-10  THRMO=  1.00D-09  THRPROD=  1.00D-09
                         THRSW=  1.00D-05  THROV=  1.00D-12  THRF12=   1.00D-08

 CPU time for Fock operators                      0.94 sec
 
 Construction of ABS:
 Smallest eigenvalue of S          2.57E-04  (threshold= 1.00E-08)
 Ratio eigmin/eigmax               1.83E-06  (threshold= 1.00E-09)
 Smallest eigenvalue of S kept     2.57E-04  (threshold= 2.57E-04, 0 functions deleted, 376 kept)
 
 Construction of CABS:
 Smallest eigenvalue of S          2.30E-08  (threshold= 1.00E-08)
 Ratio eigmin/eigmax               2.30E-08  (threshold= 1.00E-09)
 Smallest eigenvalue of S kept     2.30E-08  (threshold= 2.30E-08, 0 functions deleted, 376 kept)
 
 CPU time for CABS singles                        0.17 sec

 CABS-singles contribution of  -0.01592213 patched into reference energy.
 New reference energy        -263.78541245
 
 AO(A)-basis ORBITAL           loaded. Number of functions:     230
 RI(R)-basis CC-PVTZ/JKFIT     loaded. Number of functions:     376
 DF-basis AUG-CC-PVTZ/MP2FIT   loaded. Number of functions:     516

 Screening thresholds:   THRAO=  1.00D-10  THRMO=  1.00D-09  THRPROD=  1.00D-09
                         THRSW=  1.00D-05  THROV=  1.00D-12  THRF12=   1.00D-08

 CPU time for 3-index integral evaluation         1.94 sec
 CPU time for first  half transformation          0.22 sec (11387.6 MFLOP/sec)
 CPU time for second half transformation          0.04 sec ( 2405.0 MFLOP/sec)
 CPU time for sorting                             0.14 sec
 CPU time for fitting                             0.05 sec (27861.0 MFLOP/sec)
 CPU time for tilde quantities                    0.07 sec (26412.6 MFLOP/sec)
 CPU time for assembly                            0.82 sec (28326.1 MFLOP/sec)
 CPU time for tranop_f12                          0.93 sec (31901.2 MFLOP/sec)
 CPU time for f12 integrals (total)               6.39 sec
 F12-matrices built in  3 passes.
 F12-matrices built in  3 passes.
 F12-matrices built in  3 passes.
 F12-matrices built in  3 passes.
 FC-matrix built in  3 passes.
 CPU time for f12 matrices (total)                0.53 sec

 Diagonal F12 approximation with fixed coefficients:  TSING= 0.500,  TTRIP= 0.250 (scaled by -1/beta)

 DF-MP2-F12 energy corrections:
 ------------------------------
 Approx.                                    Singlet             Triplet             Total
 DF-MP2-F12/3*C(DX,FIX)                -0.097442948967     -0.016932197771     -0.114375146738
 DF-MP2-F12/3*C(FIX)                   -0.079859122662     -0.013394630668     -0.093253753330
 DF-MP2-F12/3C(FIX)                    -0.080220629867     -0.013418127609     -0.093638757476

 DF-MP2-F12 correlation energies:
 --------------------------------
 Approx.                                    Singlet             Triplet             Ecorr            Total Energy
 DF-MP2                                -0.537781604013     -0.343107029676     -0.880888633689   -264.666301085865
 DF-MP2-F12/3*C(DX,FIX)                -0.635224552980     -0.360039227446     -0.995263780427   -264.780676232603
 DF-MP2-F12/3*C(FIX)                   -0.617640726675     -0.356501660344     -0.974142387019   -264.759554839195
 DF-MP2-F12/3C(FIX)                    -0.618002233880     -0.356525157285     -0.974527391165   -264.759939843341

 SCS-DF-MP2 energies (F_SING= 1.20000  F_TRIP= 0.62222  F_PARALLEL= 0.33333):
 ----------------------------------------------------------------------------
 SCS-DF-MP2                            -0.858826743281   -264.644239195457
 SCS-DF-MP2-F12/3*C(DX,FIX)            -0.986293871765   -264.771706323942
 SCS-DF-MP2-F12/3*C(FIX)               -0.962992127335   -264.748404579512
 SCS-DF-MP2-F12/3C(FIX)                -0.963440556300   -264.748853008476

 Symmetry restored.
 Symmetry transformation completed.

 Number of N-1 electron functions:              12
 Number of N-2 electron functions:              78
 Number of singly external CSFs:              1422
 Number of doubly external CSFs:           1668984
 Total number of CSFs:                     1670407

 Pair and operator lists are different

 Length of J-op  integral file:             466.33 MB
 Length of K-op  integral file:             525.76 MB
 Length of 3-ext integral record:             0.00 MB

 Memory could be reduced to 76.19 Mwords without degradation in triples

 Integral transformation finished. Total CPU:   3.76 sec, npass=  1  Memory used:  26.50 MW

 Reference energy:                   -263.78541245

 Adding F12 terms to K(Cij), methodcc=6,  factor=1.0

 ITER.      SQ.NORM     CORR.ENERGY   TOTAL ENERGY   ENERGY CHANGE        DEN1      VAR(S)    VAR(P)  DIIS     TIME
   1      1.20219772    -0.86283005  -264.64824250     0.01807501     0.04671985  0.72D-02  0.56D-02  1  1    14.92
   2      1.21651803    -0.85860205  -264.64401450     0.00422800    -0.02016087  0.86D-04  0.59D-03  2  2    17.54
   3      1.22188384    -0.85869866  -264.64411111    -0.00009661    -0.00236641  0.13D-03  0.32D-04  3  3    20.20
   4      1.22468819    -0.85857074  -264.64398320     0.00012792    -0.00141237  0.76D-05  0.41D-05  4  4    22.97
   5      1.22571897    -0.85853307  -264.64394552     0.00003768    -0.00036662  0.56D-06  0.29D-06  5  5    25.75
   6      1.22588124    -0.85850620  -264.64391866     0.00002687    -0.00000806  0.40D-07  0.24D-07  6  6    28.48
   7      1.22591064    -0.85850378  -264.64391623     0.00000243    -0.00000622  0.26D-08  0.40D-08  6  4    31.31
   8      1.22591095    -0.85850329  -264.64391574     0.00000049     0.00000194  0.39D-09  0.27D-09  6  1    34.09
   9      1.22591156    -0.85850335  -264.64391580    -0.00000007     0.00000056  0.26D-10  0.21D-10  6  2    36.89

 Norm of t1 vector:      0.10599626      S-energy:    -0.00000003      T1 diagnostic:  0.01529924
                                                                       D1 diagnostic:  0.04495789

 Adding energy correction from Wij-K(Fij), methodcc=6  factor=1.0
 
  CCSD correlation energy              -0.858503352133
  MP2-F12 correction (uncoupled)       -0.092480409826
  C*T doubles correction               -0.001476326560
  f12b correction                       0.015406748888


 Total CPU time for triples:     72.44 sec


 RESULTS
 =======

  Reference energy                   -263.769490325215
  F12 singles correction               -0.015922126961

 F12 singles corrections added to reference energy

  New reference energy               -263.785412452176

  F12a singlet correction              -0.080420205761
  F12a triplet correction              -0.013536530625
  F12a total correction                -0.093956736386

 F12a corrections for ansatz F12/3C(FIX) added to CCSD energy
 
  CCSD-F12a singlet pair energy        -0.641945503243
  CCSD-F12a triplet pair energy        -0.310514556017
  CCSD-F12a correlation energy         -0.952460088519

  Triples (T) contribution             -0.037649632900
  Total correlation energy             -0.990109721419

  CCSD-F12a total energy             -264.737872540695
  CCSD[T]-F12a energy                -264.778067103718
  CCSD-T-F12a energy                 -264.774584061577
 !CCSD(T)-F12a total energy          -264.775522173595

 F12b corrections for ansatz F12/3C(FIX) added to CCSD(T)-F12a energy

  CCSD-F12b singlet pair energy        -0.627761969817
  CCSD-F12b triplet pair energy        -0.309291340556
  CCSD-F12b correlation energy         -0.937053339631

  Triples (T) contribution             -0.037649632900
  Total correlation energy             -0.974702972531

  CCSD-F12b total energy             -264.722465791808
  CCSD[T]-F12b energy                -264.762660354830
  CCSD-T-F12b energy                 -264.759177312689
 !CCSD(T)-F12b total energy          -264.760115424707

 Timing summary (sec):

 STEP                 CPU(USER)    SYS     CPU(TOT)    WALL
 Transformation          3.79      0.55      4.34      4.33
 CCSD iterations        24.60      1.50     26.10     26.10
 Triples                72.44      1.47     73.91     73.88
 MP2-F12                 8.51      1.18      9.69      9.69
 F12b energy             1.77      0.02      1.79      1.80

 Program statistics:

 Available memory in ccsd:                99998934
 Min. memory needed in ccsd:               4419579
 Max. memory used in ccsd:                 5922321
 Max. memory used in cckext:               6231049 (10 integral passes)



 **********************************************************************************************************************************
 DATASETS  * FILE   NREC   LENGTH (MB)   RECORD NAMES
              1      20      268.24       500      610      700      900      950      970     1000      129      960     1100   
                                          VAR    BASINP    GEOM    SYMINP    ZMAT    AOBASIS   BASIS     P2S    ABASIS      S 
                                         1400     1410     1200     1210     1080     1600     1650     1700      960(1)  1380   
                                           T        V       H0       H01     AOSYM     SMH    MOLCAS    OPER    ABASIS    JKOP   

              2       5        1.51       700     1000     2100     7360     7350   
                                         GEOM     BASIS     RHF    F12ABS    EF12   

 PROGRAMS   *        TOTAL   CCSD(T)        HF       INT
 CPU TIMES  *       119.42    111.19      3.38      4.78
 REAL TIME  *       125.15 SEC
 DISK USED  *         1.62 GB      
 SF USED    *         1.52 GB      
 GA USED    *         2.40 MB       (max)       0.00 MB       (current)
 **********************************************************************************************************************************

     CCSD(T)-F12        HF-SCF  
   -264.76011542   -263.76949033
 **********************************************************************************************************************************
 Variable memory released
