
 Primary working directories    : /scratch/kee
 Secondary working directories  : /scratch/kee
 Wavefunction directory         : /home/kee/wfu/
 Main file repository           : /scratch/kee/

 ARCHNAME  : Linux/x86_64
 FC        : /opt/intel/composer_xe_2015.0.090/bin/intel64/ifort
 FCVERSION : 15.0.0
 BLASLIB   : -L/opt/intel/mkl/lib/intel64 -lmkl_intel_ilp64 -lmkl_sequential -lmkl_core
 id        : emory

 Nodes     nprocs
 node23       3
 Number of processes for MPI-2 version of Molpro:   nprocs(total)=    4   nprocs(compute)=    3   nprocs(helper)=    1
 ga_uses_ma=false, calling ma_init with nominal heap.
 GA-space will be limited to   8.0 MW (determined by -G option)

 Using customized tuning parameters: mindgm=7; mindgv=32; mindgc=1; mindgr=1; noblas=0; mincuda=1000; minvec=7
 default implementation of scratch files=sf  

 ***,co2h2o
 memory,100,m
 basis avtz
 geomtype = xyz
 geometry = {
 6
    -264.76489694
 O     0.82869278    1.16169550    0.00000000
 O     0.82658011   -1.16233555    0.00000000
 O    -5.39123433    0.00213153    0.00000000
 H    -5.97486734    0.76272618    0.00000000
 H    -5.97459923   -0.75867039    0.00000000
 C     0.80876519   -0.00029961    0.00000000
 }
 hf
 ccsd(t)-f12
 ---

 Variables initialized (665), CPU time= 0.01 sec
 Commands  initialized (462), CPU time= 0.01 sec, 486 directives.
 Default parameters read. Elapsed time= 0.05 sec

 Checking input...
 Passed
1


                                         ***  PROGRAM SYSTEM MOLPRO  ***
                         Copyright, University College Cardiff Consultants Limited, 2008

                                    Version 2010.1 linked 9 Dec 2014 15:06:28 


 **********************************************************************************************************************************
 LABEL *   co2h2o                                                                        
 Linux-2.6.32-504.el6.x86_64/node23(x86_64) 64 bit mpp version                           DATE: 07-Dec-16          TIME: 00:10:26  
 **********************************************************************************************************************************

 Patch level:      19
 **********************************************************************************************************************************

 Variable memory set to  100000000 words,  buffer space   230000 words

 SETTING BASIS          =    AVTZ
 SETTING GEOMTYPE       =    XYZ

Geometry recognized as XYZ



 Recomputing integrals since basis changed


 Using spherical harmonics

 Library entry O      S aug-cc-pVTZ          selected for orbital group  1
 Library entry O      P aug-cc-pVTZ          selected for orbital group  1
 Library entry O      D aug-cc-pVTZ          selected for orbital group  1
 Library entry O      F aug-cc-pVTZ          selected for orbital group  1
 Library entry H      S aug-cc-pVTZ          selected for orbital group  2
 Library entry H      P aug-cc-pVTZ          selected for orbital group  2
 Library entry H      D aug-cc-pVTZ          selected for orbital group  2
 Library entry C      S aug-cc-pVTZ          selected for orbital group  3
 Library entry C      P aug-cc-pVTZ          selected for orbital group  3
 Library entry C      D aug-cc-pVTZ          selected for orbital group  3
 Library entry C      F aug-cc-pVTZ          selected for orbital group  3

1PROGRAM * SEWARD (Integral evaluation for generally contracted gaussian basis sets)     Author: Roland Lindh, 1990

 Geometry written to block  1 of record 700


 Point group  Cs  



 ATOMIC COORDINATES

 NR  ATOM    CHARGE       X              Y              Z

   1  O       8.00    1.566002401    2.195286343    0.000000000
   2  O       8.00    1.562010034   -2.196495862    0.000000000
   3  O       8.00  -10.187956394    0.004028008    0.000000000
   4  H       1.00  -11.290862944    1.441343593    0.000000000
   5  H       1.00  -11.290356290   -1.433679261    0.000000000
   6  C       6.00    1.528344714   -0.000566181    0.000000000

 Bond lengths in Bohr (Angstrom)

 1-6  2.196175405  2-6  2.196187724  3-4  1.811706088  3-5  1.811708509
     (1.162165971)     (1.162172490)     (0.958713571)     (0.958714852)

 Bond angles

  1-6-2  178.13918425   4-3-5  105.01947441

 NUCLEAR CHARGE:                   32
 NUMBER OF PRIMITIVE AOS:         322
 NUMBER OF SYMMETRY AOS:          282
 NUMBER OF CONTRACTIONS:          230   ( 152A'  +  78A"  )
 NUMBER OF CORE ORBITALS:           4   (   4A'  +   0A"  )
 NUMBER OF VALENCE ORBITALS:       18   (  14A'  +   4A"  )


 NUCLEAR REPULSION ENERGY   85.63809608


 Eigenvalues of metric

         1 0.348E-03 0.372E-03 0.390E-03 0.392E-03 0.898E-03 0.921E-03 0.166E-02 0.172E-02
         2 0.318E-02 0.348E-02 0.591E-02 0.124E-01 0.136E-01 0.291E-01 0.296E-01 0.316E-01


 Contracted 2-electron integrals neglected if value below      1.0D-11
 AO integral compression algorithm  1   Integral accuracy      1.0D-11

     379.585 MB (compressed) written to integral file ( 24.3%)

     Node minimum: 113.770 MB, node maximum: 142.606 MB


 NUMBER OF SORTED TWO-ELECTRON INTEGRALS:   59950380.     BUFFER LENGTH:  32768
 NUMBER OF SEGMENTS:   4  SEGMENT LENGTH:   15995235      RECORD LENGTH: 524288

 Memory used in sort:      16.55 MW

 SORT1 READ   194959447. AND WROTE    27927839. INTEGRALS IN     82 RECORDS. CPU TIME:     3.04 SEC, REAL TIME:     3.38 SEC
 SORT2 READ    84082772. AND WROTE   179836431. INTEGRALS IN   1410 RECORDS. CPU TIME:     1.11 SEC, REAL TIME:     1.40 SEC

 Node minimum:    59940574.  Node maximum:    59950380. integrals

 OPERATOR DM      FOR CENTER  0  COORDINATES:    0.000000    0.000000    0.000000


 **********************************************************************************************************************************
 DATASETS  * FILE   NREC   LENGTH (MB)   RECORD NAMES
              1      18        3.74       500      610      700      900      950      970     1000      129      960     1100   
                                          VAR    BASINP    GEOM    SYMINP    ZMAT    AOBASIS   BASIS     P2S    ABASIS      S 
                                         1400     1410     1200     1210     1080     1600     1650     1700   
                                           T        V       H0       H01     AOSYM     SMH    MOLCAS    OPER   

 PROGRAMS   *        TOTAL       INT
 CPU TIMES  *         8.09      7.98
 REAL TIME  *         9.06 SEC
 DISK USED  *         1.38 GB      
 GA USED    *         0.00 MB       (max)       0.00 MB       (current)
 **********************************************************************************************************************************

1PROGRAM * RHF-SCF (CLOSED SHELL)       Authors: W. Meyer, H.-J. Werner


 NUMBER OF ELECTRONS:      16+   16-
 CONVERGENCE THRESHOLDS:    1.00E-05 (Density)    1.00E-07 (Energy)
 MAX. NUMBER OF ITERATIONS:       60
 INTERPOLATION TYPE:            DIIS
 INTERPOLATION STEPS:              2 (START)      1 (STEP)
 LEVEL SHIFTS:                  0.00 (CLOSED)  0.00 (OPEN) 



 Orbital guess generated from atomic densities. Full valence occupancy:   18   4

 Molecular orbital dump at record        2100.2

 Initial alpha occupancy:  13   3
 Initial beta  occupancy:  13   3
 Wave function symmetry:    1

 ITERATION    DDIFF          GRAD             ENERGY        2-EL.EN.            DIPOLE MOMENTS         DIIS
    1      0.000D+00      0.000D+00      -263.66085595    366.981881   -1.18424   -0.00012    0.00000    0
    2      0.000D+00      0.629D-02      -263.72602371    362.355919   -0.69715   -0.00009    0.00000    1
    3      0.101D-01      0.427D-02      -263.76915487    364.923258   -0.81784   -0.00009    0.00000    2
    4      0.415D-02      0.402D-03      -263.76964986    364.712625   -0.82103   -0.00009    0.00000    3
    5      0.485D-03      0.117D-03      -263.76970786    364.713895   -0.81573   -0.00009    0.00000    4
    6      0.181D-03      0.472D-04      -263.76971504    364.728554   -0.81642   -0.00009    0.00000    5
    7      0.604D-04      0.115D-04      -263.76971577    364.720157   -0.81597   -0.00009    0.00000    6
    8      0.197D-04      0.254D-05      -263.76971581    364.721461   -0.81598   -0.00009    0.00000    7
    9      0.541D-05      0.851D-06      -263.76971582    364.721265   -0.81595   -0.00009    0.00000    0

 Final occupancy:  13   3

 !RHF STATE 1.1 Energy               -263.769715817407
 Nuclear energy                        85.63809608
 One-electron energy                 -531.76844420
 Two-electron energy                  182.36063230
 Virial quotient                       -1.00183124
 !RHF STATE 1.1 Dipole moment          -0.81595017    -0.00009005     0.00000000
 Dipole moment /Debye                  -2.07380263    -0.00022886     0.00000000

 Orbital energies:

         1.1          2.1          3.1          4.1          5.1          6.1          7.1          8.1          9.1         10.1
    -20.648186   -20.648141   -20.568526   -11.457024    -1.525849    -1.472761    -1.353778    -0.796160    -0.738430    -0.719304

        11.1         12.1         13.1         14.1         15.1
     -0.709830    -0.585100    -0.539535     0.028168     0.046991

         1.2          2.2          3.2          4.2          5.2
     -0.709940    -0.539603    -0.511422     0.077113     0.158478


 **********************************************************************************************************************************
 DATASETS  * FILE   NREC   LENGTH (MB)   RECORD NAMES
              1      18        3.76       500      610      700      900      950      970     1000      129      960     1100   
                                          VAR    BASINP    GEOM    SYMINP    ZMAT    AOBASIS   BASIS     P2S    ABASIS      S 
                                         1400     1410     1200     1210     1080     1600     1650     1700   
                                           T        V       H0       H01     AOSYM     SMH    MOLCAS    OPER   

              2       3        0.96       700     1000     2100   
                                         GEOM     BASIS     RHF  

 PROGRAMS   *        TOTAL        HF       INT
 CPU TIMES  *        12.08      3.99      7.98
 REAL TIME  *        13.29 SEC
 DISK USED  *         1.41 GB      
 SF USED    *         0.12 MB      
 GA USED    *         0.00 MB       (max)       0.00 MB       (current)
 **********************************************************************************************************************************


1PROGRAM * CCSD (Closed-shell coupled cluster)     Authors: C. Hampel, H.-J. Werner, 1991, M. Deegan, P.J. Knowles, 1992

                                  CCSD-F12 implementation by  H.-J. Werner, 2007

                   Density fitting integral evaluation by F.R. Manby, 2003,2007, G. Knizia, 2010

 Basis set CC-PVTZ/JKFIT generated.      Number of basis functions:   376 
 Basis set AUG-CC-PVTZ/MP2FIT generated. Number of basis functions:   516 

 Convergence thresholds:  THRVAR = 1.00D-08  THRDEN = 1.00D-06

 CCSD(T)     terms to be evaluated (factor= 1.000)


 Number of core orbitals:           4 (   4   0 )
 Number of closed-shell orbitals:  12 (   9   3 )
 Number of external orbitals:     214 ( 139  75 )

 Molecular orbitals read from record     2100.2  Type=RHF/CANONICAL (state 1.1)

 MP2-F12 correlation treatment (H.-J. Werner, 2006)
 --------------------------------------------------

 Using MP2-F12 with ansatz 3C(FIX)

 Using projected zeroth-order Hamiltonian (+Z)

 FOCKRIB=T FOCKRIC=T FOCKRIP=T CABSP=T CABSA=T CABSK=T CABSF=T GBC=F EBC=F DMAT=T NOFIK=T NOPAO=1 SOLVE=-1  USEPAO=0
 EXCH_A= T EXCH_B= F EXCH_C= F EXCH_P= F
 
 Geminal basis:    OPTFULL  GEM_TYPE=SLATER  BETA=1.0  NGEM=6

 Optimizing Gaussian exponents for each gem_beta

 Geminal optimization for beta= 1.0000
 Weight function:   m=0, omega= 1.4646

 Augmented Hessian optimization of geminal fit. Trust ratio= 0.40000
 Convergence reached after   2 iterations. Final gradient= 8.24D-16, Step= 4.32D-06, Delta= 1.28D-09
 
 Alpha:                 0.19532     0.81920     2.85917     9.50073    35.69989   197.79328
 Coeff:                 0.27070     0.30552     0.18297     0.10986     0.06810     0.04224
 

 Symmetry turned off. Reference energy:       -263.769715817407

 All pairs explicitly correlated. Number of r12-pairs:           78
 
 AO(A)-basis ORBITAL           loaded. Number of functions:     230
 RI(R)-basis CC-PVTZ/JKFIT     loaded. Number of functions:     376
 DF-basis CC-PVTZ/JKFIT        loaded. Number of functions:     376

 Screening thresholds:   THRAO=  1.00D-10  THRMO=  1.00D-09  THRPROD=  1.00D-09
                         THRSW=  1.00D-05  THROV=  1.00D-12  THRF12=   1.00D-08

 CPU time for Fock operators                      1.06 sec
 
 Construction of ABS:
 Smallest eigenvalue of S          2.57E-04  (threshold= 1.00E-08)
 Ratio eigmin/eigmax               1.83E-06  (threshold= 1.00E-09)
 Smallest eigenvalue of S kept     2.57E-04  (threshold= 2.57E-04, 0 functions deleted, 376 kept)
 
 Construction of CABS:
 Smallest eigenvalue of S          2.30E-08  (threshold= 1.00E-08)
 Ratio eigmin/eigmax               2.30E-08  (threshold= 1.00E-09)
 Smallest eigenvalue of S kept     2.30E-08  (threshold= 2.30E-08, 0 functions deleted, 376 kept)
 
 CPU time for CABS singles                        0.19 sec

 CABS-singles contribution of  -0.01592224 patched into reference energy.
 New reference energy        -263.78563806
 
 AO(A)-basis ORBITAL           loaded. Number of functions:     230
 RI(R)-basis CC-PVTZ/JKFIT     loaded. Number of functions:     376
 DF-basis AUG-CC-PVTZ/MP2FIT   loaded. Number of functions:     516

 Screening thresholds:   THRAO=  1.00D-10  THRMO=  1.00D-09  THRPROD=  1.00D-09
                         THRSW=  1.00D-05  THROV=  1.00D-12  THRF12=   1.00D-08

 CPU time for 3-index integral evaluation         2.23 sec
 CPU time for first  half transformation          0.44 sec ( 6453.3 MFLOP/sec)
 CPU time for second half transformation          0.02 sec ( 5201.6 MFLOP/sec)
 CPU time for sorting                             0.17 sec
 CPU time for fitting                             0.06 sec (23217.5 MFLOP/sec)
 CPU time for tilde quantities                    0.72 sec ( 2749.8 MFLOP/sec)
 CPU time for assembly                            0.88 sec (27890.1 MFLOP/sec)
 CPU time for tranop_f12                          1.26 sec (27990.1 MFLOP/sec)
 CPU time for f12 integrals (total)               8.34 sec
 F12-matrices built in  3 passes.
 F12-matrices built in  3 passes.
 F12-matrices built in  3 passes.
 F12-matrices built in  3 passes.
 FC-matrix built in  3 passes.
 CPU time for f12 matrices (total)                0.53 sec

 Diagonal F12 approximation with fixed coefficients:  TSING= 0.500,  TTRIP= 0.250 (scaled by -1/beta)

 DF-MP2-F12 energy corrections:
 ------------------------------
 Approx.                                    Singlet             Triplet             Total
 DF-MP2-F12/3*C(DX,FIX)                -0.097449795460     -0.016933518292     -0.114383313751
 DF-MP2-F12/3*C(FIX)                   -0.079866894327     -0.013395608237     -0.093262502564
 DF-MP2-F12/3C(FIX)                    -0.080227474520     -0.013418749339     -0.093646223858

 DF-MP2-F12 correlation energies:
 --------------------------------
 Approx.                                    Singlet             Triplet             Ecorr            Total Energy
 DF-MP2                                -0.537704258246     -0.343059811295     -0.880764069541   -264.666402125013
 DF-MP2-F12/3*C(DX,FIX)                -0.635154053706     -0.359993329586     -0.995147383292   -264.780785438764
 DF-MP2-F12/3*C(FIX)                   -0.617571152573     -0.356455419531     -0.974026572105   -264.759664627576
 DF-MP2-F12/3C(FIX)                    -0.617931732766     -0.356478560633     -0.974410293399   -264.760048348871

 SCS-DF-MP2 energies (F_SING= 1.20000  F_TRIP= 0.62222  F_PARALLEL= 0.33333):
 ----------------------------------------------------------------------------
 SCS-DF-MP2                            -0.858704548034   -264.644342603506
 SCS-DF-MP2-F12/3*C(DX,FIX)            -0.986180713968   -264.771818769440
 SCS-DF-MP2-F12/3*C(FIX)               -0.962879866352   -264.748517921824
 SCS-DF-MP2-F12/3C(FIX)                -0.963326961491   -264.748965016963

 Symmetry restored.
 Symmetry transformation completed.

 Number of N-1 electron functions:              12
 Number of N-2 electron functions:              78
 Number of singly external CSFs:              1476
 Number of doubly external CSFs:           1686804
 Total number of CSFs:                     1688281

 Pair and operator lists are different

 Length of J-op  integral file:             466.42 MB
 Length of K-op  integral file:             526.62 MB
 Length of 3-ext integral record:             0.00 MB

 Memory could be reduced to 76.61 Mwords without degradation in triples

 Integral transformation finished. Total CPU:   4.51 sec, npass=  1  Memory used:  24.61 MW

 Reference energy:                   -263.78563806

 Adding F12 terms to K(Cij), methodcc=6,  factor=1.0

 ITER.      SQ.NORM     CORR.ENERGY   TOTAL ENERGY   ENERGY CHANGE        DEN1      VAR(S)    VAR(P)  DIIS     TIME
   1      1.20212773    -0.86272358  -264.64836163     0.01805692     0.04667809  0.72D-02  0.56D-02  1  1    18.43
   2      1.21643587    -0.85850009  -264.64413815     0.00422348    -0.02014614  0.86D-04  0.59D-03  2  2    21.72
   3      1.22179559    -0.85859680  -264.64423485    -0.00009670    -0.00236391  0.13D-03  0.32D-04  3  3    25.12
   4      1.22459702    -0.85846907  -264.64410712     0.00012773    -0.00141112  0.76D-05  0.41D-05  4  4    28.59
   5      1.22562677    -0.85843140  -264.64406945     0.00003767    -0.00036625  0.56D-06  0.29D-06  5  5    32.12
   6      1.22578893    -0.85840454  -264.64404259     0.00002686    -0.00000805  0.40D-07  0.24D-07  6  6    35.50
   7      1.22581827    -0.85840212  -264.64404017     0.00000242    -0.00000621  0.25D-08  0.40D-08  6  4    38.98
   8      1.22581857    -0.85840163  -264.64403968     0.00000049     0.00000195  0.39D-09  0.27D-09  6  1    42.51
   9      1.22581919    -0.85840169  -264.64403975    -0.00000007     0.00000056  0.26D-10  0.21D-10  6  2    45.88

 Norm of t1 vector:      0.10595180      S-energy:    -0.00000002      T1 diagnostic:  0.01529282
                                                                       D1 diagnostic:  0.04496154

 Adding energy correction from Wij-K(Fij), methodcc=6  factor=1.0
 
  CCSD correlation energy              -0.858401692879
  MP2-F12 correction (uncoupled)       -0.092490221394
  C*T doubles correction               -0.001475040580
  f12b correction                       0.015406925223


 Total CPU time for triples:     79.22 sec


 RESULTS
 =======

  Reference energy                   -263.769715817407
  F12 singles correction               -0.015922238064

 F12 singles corrections added to reference energy

  New reference energy               -263.785638055472

  F12a singlet correction              -0.080427723910
  F12a triplet correction              -0.013537538064
  F12a total correction                -0.093965261974

 F12a corrections for ansatz F12/3C(FIX) added to CCSD energy
 
  CCSD-F12a singlet pair energy        -0.641869019383
  CCSD-F12a triplet pair energy        -0.310497910518
  CCSD-F12a correlation energy         -0.952366954852

  Triples (T) contribution             -0.037634958230
  Total correlation energy             -0.990001913082

  CCSD-F12a total energy             -264.738005010324
  CCSD[T]-F12a energy                -264.778182441719
  CCSD-T-F12a energy                 -264.774702962793
 !CCSD(T)-F12a total energy          -264.775639968554

 F12b corrections for ansatz F12/3C(FIX) added to CCSD(T)-F12a energy

  CCSD-F12b singlet pair energy        -0.627685464023
  CCSD-F12b triplet pair energy        -0.309274540655
  CCSD-F12b correlation energy         -0.936960029629

  Triples (T) contribution             -0.037634958230
  Total correlation energy             -0.974594987859

  CCSD-F12b total energy             -264.722598085101
  CCSD[T]-F12b energy                -264.762775516496
  CCSD-T-F12b energy                 -264.759296037569
 !CCSD(T)-F12b total energy          -264.760233043331

 Timing summary (sec):

 STEP                 CPU(USER)    SYS     CPU(TOT)    WALL
 Transformation          4.54      0.57      5.11      5.10
 CCSD iterations        30.75      1.66     32.41     33.13
 Triples                79.22      1.56     80.78     80.76
 MP2-F12                10.61      1.30     11.91     12.33
 F12b energy             2.24      0.02      2.26      2.27

 Program statistics:

 Available memory in ccsd:                99998934
 Min. memory needed in ccsd:               4458306
 Max. memory used in ccsd:                 5958390
 Max. memory used in cckext:               6352469 (10 integral passes)



 **********************************************************************************************************************************
 DATASETS  * FILE   NREC   LENGTH (MB)   RECORD NAMES
              1      20      269.66       500      610      700      900      950      970     1000      129      960     1100   
                                          VAR    BASINP    GEOM    SYMINP    ZMAT    AOBASIS   BASIS     P2S    ABASIS      S 
                                         1400     1410     1200     1210     1080     1600     1650     1700      960(1)  1380   
                                           T        V       H0       H01     AOSYM     SMH    MOLCAS    OPER    ABASIS    JKOP   

              2       5        1.55       700     1000     2100     7360     7350   
                                         GEOM     BASIS     RHF    F12ABS    EF12   

 PROGRAMS   *        TOTAL   CCSD(T)        HF       INT
 CPU TIMES  *       139.54    127.46      3.99      7.98
 REAL TIME  *       147.26 SEC
 DISK USED  *         1.85 GB      
 SF USED    *         1.53 GB      
 GA USED    *         2.40 MB       (max)       0.00 MB       (current)
 **********************************************************************************************************************************

     CCSD(T)-F12        HF-SCF  
   -264.76023304   -263.76971582
 **********************************************************************************************************************************
 Variable memory released
