
 Primary working directories    : /scratch/kee
 Secondary working directories  : /scratch/kee
 Wavefunction directory         : /home/kee/wfu/
 Main file repository           : /scratch/kee/

 ARCHNAME  : Linux/x86_64
 FC        : /opt/intel/composer_xe_2015.0.090/bin/intel64/ifort
 FCVERSION : 15.0.0
 BLASLIB   : -L/opt/intel/mkl/lib/intel64 -lmkl_intel_ilp64 -lmkl_sequential -lmkl_core
 id        : emory

 Nodes     nprocs
 node18       3
 Number of processes for MPI-2 version of Molpro:   nprocs(total)=    4   nprocs(compute)=    3   nprocs(helper)=    1
 ga_uses_ma=false, calling ma_init with nominal heap.
 GA-space will be limited to   8.0 MW (determined by -G option)

 Using customized tuning parameters: mindgm=7; mindgv=32; mindgc=1; mindgr=1; noblas=0; mincuda=1000; minvec=7
 default implementation of scratch files=sf  

 ***,co2h2o
 memory,100,m
 basis avtz
 geomtype = xyz
 geometry = {
 6
    -264.76489694
 O     0.82869278    1.16169550    0.00000000
 O     0.82658011   -1.16233555    0.00000000
 O    -5.04123436    0.00199429    0.00000000
 H    -5.62486737    0.76258894    0.00000000
 H    -5.62459926   -0.75880763    0.00000000
 C     0.80876519   -0.00029961    0.00000000
 }
 hf
 ccsd(t)-f12
 ---

 Variables initialized (665), CPU time= 0.01 sec
 Commands  initialized (462), CPU time= 0.00 sec, 486 directives.
 Default parameters read. Elapsed time= 0.06 sec

 Checking input...
 Passed
1


                                         ***  PROGRAM SYSTEM MOLPRO  ***
                         Copyright, University College Cardiff Consultants Limited, 2008

                                    Version 2010.1 linked 9 Dec 2014 15:06:28 


 **********************************************************************************************************************************
 LABEL *   co2h2o                                                                        
 Linux-2.6.32-504.el6.x86_64/node18(x86_64) 64 bit mpp version                           DATE: 11-Dec-16          TIME: 23:09:07  
 **********************************************************************************************************************************

 Patch level:      19
 **********************************************************************************************************************************

 Variable memory set to  100000000 words,  buffer space   230000 words

 SETTING BASIS          =    AVTZ
 SETTING GEOMTYPE       =    XYZ

Geometry recognized as XYZ



 Recomputing integrals since basis changed


 Using spherical harmonics

 Library entry O      S aug-cc-pVTZ          selected for orbital group  1
 Library entry O      P aug-cc-pVTZ          selected for orbital group  1
 Library entry O      D aug-cc-pVTZ          selected for orbital group  1
 Library entry O      F aug-cc-pVTZ          selected for orbital group  1
 Library entry H      S aug-cc-pVTZ          selected for orbital group  2
 Library entry H      P aug-cc-pVTZ          selected for orbital group  2
 Library entry H      D aug-cc-pVTZ          selected for orbital group  2
 Library entry C      S aug-cc-pVTZ          selected for orbital group  3
 Library entry C      P aug-cc-pVTZ          selected for orbital group  3
 Library entry C      D aug-cc-pVTZ          selected for orbital group  3
 Library entry C      F aug-cc-pVTZ          selected for orbital group  3

1PROGRAM * SEWARD (Integral evaluation for generally contracted gaussian basis sets)     Author: Roland Lindh, 1990

 Geometry written to block  1 of record 700


 Point group  Cs  



 ATOMIC COORDINATES

 NR  ATOM    CHARGE       X              Y              Z

   1  O       8.00    1.566002401    2.195286343    0.000000000
   2  O       8.00    1.562010034   -2.196495862    0.000000000
   3  O       8.00   -9.526552305    0.003768662    0.000000000
   4  H       1.00  -10.629458855    1.441084247    0.000000000
   5  H       1.00  -10.628952200   -1.433938607    0.000000000
   6  C       6.00    1.528344714   -0.000566181    0.000000000

 Bond lengths in Bohr (Angstrom)

 1-6  2.196175405  2-6  2.196187724  3-4  1.811706088  3-5  1.811708509
     (1.162165971)     (1.162172490)     (0.958713571)     (0.958714852)

 Bond angles

  1-6-2  178.13918425   4-3-5  105.01947441

 NUCLEAR CHARGE:                   32
 NUMBER OF PRIMITIVE AOS:         322
 NUMBER OF SYMMETRY AOS:          282
 NUMBER OF CONTRACTIONS:          230   ( 152A'  +  78A"  )
 NUMBER OF CORE ORBITALS:           4   (   4A'  +   0A"  )
 NUMBER OF VALENCE ORBITALS:       18   (  14A'  +   4A"  )


 NUCLEAR REPULSION ENERGY   86.67514816


 Eigenvalues of metric

         1 0.347E-03 0.367E-03 0.391E-03 0.393E-03 0.898E-03 0.921E-03 0.165E-02 0.171E-02
         2 0.318E-02 0.348E-02 0.589E-02 0.124E-01 0.135E-01 0.289E-01 0.296E-01 0.315E-01


 Contracted 2-electron integrals neglected if value below      1.0D-11
 AO integral compression algorithm  1   Integral accuracy      1.0D-11

     400.818 MB (compressed) written to integral file ( 25.2%)

     Node minimum: 119.013 MB, node maximum: 146.276 MB


 NUMBER OF SORTED TWO-ELECTRON INTEGRALS:   59950380.     BUFFER LENGTH:  32768
 NUMBER OF SEGMENTS:   4  SEGMENT LENGTH:   15995235      RECORD LENGTH: 524288

 Memory used in sort:      16.55 MW

 SORT1 READ   199029677. AND WROTE    29989647. INTEGRALS IN     88 RECORDS. CPU TIME:     2.85 SEC, REAL TIME:     3.19 SEC
 SORT2 READ    90303966. AND WROTE   179836431. INTEGRALS IN   1674 RECORDS. CPU TIME:     1.16 SEC, REAL TIME:     1.45 SEC

 Node minimum:    59940574.  Node maximum:    59950380. integrals

 OPERATOR DM      FOR CENTER  0  COORDINATES:    0.000000    0.000000    0.000000


 **********************************************************************************************************************************
 DATASETS  * FILE   NREC   LENGTH (MB)   RECORD NAMES
              1      18        3.74       500      610      700      900      950      970     1000      129      960     1100   
                                          VAR    BASINP    GEOM    SYMINP    ZMAT    AOBASIS   BASIS     P2S    ABASIS      S 
                                         1400     1410     1200     1210     1080     1600     1650     1700   
                                           T        V       H0       H01     AOSYM     SMH    MOLCAS    OPER   

 PROGRAMS   *        TOTAL       INT
 CPU TIMES  *         7.99      7.87
 REAL TIME  *         8.86 SEC
 DISK USED  *         1.48 GB      
 GA USED    *         0.00 MB       (max)       0.00 MB       (current)
 **********************************************************************************************************************************

1PROGRAM * RHF-SCF (CLOSED SHELL)       Authors: W. Meyer, H.-J. Werner


 NUMBER OF ELECTRONS:      16+   16-
 CONVERGENCE THRESHOLDS:    1.00E-05 (Density)    1.00E-07 (Energy)
 MAX. NUMBER OF ITERATIONS:       60
 INTERPOLATION TYPE:            DIIS
 INTERPOLATION STEPS:              2 (START)      1 (STEP)
 LEVEL SHIFTS:                  0.00 (CLOSED)  0.00 (OPEN) 



 Orbital guess generated from atomic densities. Full valence occupancy:   18   4

 Molecular orbital dump at record        2100.2

 Initial alpha occupancy:  13   3
 Initial beta  occupancy:  13   3
 Wave function symmetry:    1

 ITERATION    DDIFF          GRAD             ENERGY        2-EL.EN.            DIPOLE MOMENTS         DIIS
    1      0.000D+00      0.000D+00      -263.66101532    369.086669   -1.18424   -0.00012    0.00000    0
    2      0.000D+00      0.629D-02      -263.72615472    364.450978   -0.70076   -0.00009    0.00000    1
    3      0.101D-01      0.426D-02      -263.76922488    367.018888   -0.82031   -0.00009    0.00000    2
    4      0.415D-02      0.402D-03      -263.76971986    366.808744   -0.82345   -0.00009    0.00000    3
    5      0.485D-03      0.117D-03      -263.76977786    366.809701   -0.81819   -0.00009    0.00000    4
    6      0.181D-03      0.473D-04      -263.76978504    366.824431   -0.81888   -0.00009    0.00000    5
    7      0.605D-04      0.115D-04      -263.76978577    366.816019   -0.81844   -0.00009    0.00000    6
    8      0.197D-04      0.254D-05      -263.76978582    366.817325   -0.81845   -0.00009    0.00000    7
    9      0.541D-05      0.851D-06      -263.76978582    366.817127   -0.81842   -0.00009    0.00000    0

 Final occupancy:  13   3

 !RHF STATE 1.1 Energy               -263.769785822705
 Nuclear energy                        86.67514816
 One-electron energy                 -533.85349754
 Two-electron energy                  183.40856356
 Virial quotient                       -1.00183213
 !RHF STATE 1.1 Dipole moment          -0.81841737    -0.00008905     0.00000000
 Dipole moment /Debye                  -2.08007321    -0.00022632     0.00000000

 Orbital energies:

         1.1          2.1          3.1          4.1          5.1          6.1          7.1          8.1          9.1         10.1
    -20.647575   -20.647530   -20.568760   -11.456434    -1.525237    -1.472155    -1.354014    -0.795576    -0.737852    -0.719535

        11.1         12.1         13.1         14.1         15.1
     -0.709202    -0.585369    -0.538933     0.028096     0.046996

         1.2          2.2          3.2          4.2          5.2
     -0.709337    -0.539011    -0.511666     0.077602     0.158849


 **********************************************************************************************************************************
 DATASETS  * FILE   NREC   LENGTH (MB)   RECORD NAMES
              1      18        3.76       500      610      700      900      950      970     1000      129      960     1100   
                                          VAR    BASINP    GEOM    SYMINP    ZMAT    AOBASIS   BASIS     P2S    ABASIS      S 
                                         1400     1410     1200     1210     1080     1600     1650     1700   
                                           T        V       H0       H01     AOSYM     SMH    MOLCAS    OPER   

              2       3        0.96       700     1000     2100   
                                         GEOM     BASIS     RHF  

 PROGRAMS   *        TOTAL        HF       INT
 CPU TIMES  *        12.16      4.17      7.87
 REAL TIME  *        13.27 SEC
 DISK USED  *         1.50 GB      
 SF USED    *         0.12 MB      
 GA USED    *         0.00 MB       (max)       0.00 MB       (current)
 **********************************************************************************************************************************


1PROGRAM * CCSD (Closed-shell coupled cluster)     Authors: C. Hampel, H.-J. Werner, 1991, M. Deegan, P.J. Knowles, 1992

                                  CCSD-F12 implementation by  H.-J. Werner, 2007

                   Density fitting integral evaluation by F.R. Manby, 2003,2007, G. Knizia, 2010

 Basis set CC-PVTZ/JKFIT generated.      Number of basis functions:   376 
 Basis set AUG-CC-PVTZ/MP2FIT generated. Number of basis functions:   516 

 Convergence thresholds:  THRVAR = 1.00D-08  THRDEN = 1.00D-06

 CCSD(T)     terms to be evaluated (factor= 1.000)


 Number of core orbitals:           4 (   4   0 )
 Number of closed-shell orbitals:  12 (   9   3 )
 Number of external orbitals:     214 ( 139  75 )

 Molecular orbitals read from record     2100.2  Type=RHF/CANONICAL (state 1.1)

 MP2-F12 correlation treatment (H.-J. Werner, 2006)
 --------------------------------------------------

 Using MP2-F12 with ansatz 3C(FIX)

 Using projected zeroth-order Hamiltonian (+Z)

 FOCKRIB=T FOCKRIC=T FOCKRIP=T CABSP=T CABSA=T CABSK=T CABSF=T GBC=F EBC=F DMAT=T NOFIK=T NOPAO=1 SOLVE=-1  USEPAO=0
 EXCH_A= T EXCH_B= F EXCH_C= F EXCH_P= F
 
 Geminal basis:    OPTFULL  GEM_TYPE=SLATER  BETA=1.0  NGEM=6

 Optimizing Gaussian exponents for each gem_beta

 Geminal optimization for beta= 1.0000
 Weight function:   m=0, omega= 1.4646

 Augmented Hessian optimization of geminal fit. Trust ratio= 0.40000
 Convergence reached after   2 iterations. Final gradient= 8.24D-16, Step= 4.32D-06, Delta= 1.28D-09
 
 Alpha:                 0.19532     0.81920     2.85917     9.50073    35.69989   197.79328
 Coeff:                 0.27070     0.30552     0.18297     0.10986     0.06810     0.04224
 

 Symmetry turned off. Reference energy:       -263.769785822705

 All pairs explicitly correlated. Number of r12-pairs:           78
 
 AO(A)-basis ORBITAL           loaded. Number of functions:     230
 RI(R)-basis CC-PVTZ/JKFIT     loaded. Number of functions:     376
 DF-basis CC-PVTZ/JKFIT        loaded. Number of functions:     376

 Screening thresholds:   THRAO=  1.00D-10  THRMO=  1.00D-09  THRPROD=  1.00D-09
                         THRSW=  1.00D-05  THROV=  1.00D-12  THRF12=   1.00D-08

 CPU time for Fock operators                      1.00 sec
 
 Construction of ABS:
 Smallest eigenvalue of S          2.57E-04  (threshold= 1.00E-08)
 Ratio eigmin/eigmax               1.83E-06  (threshold= 1.00E-09)
 Smallest eigenvalue of S kept     2.57E-04  (threshold= 2.57E-04, 0 functions deleted, 376 kept)
 
 Construction of CABS:
 Smallest eigenvalue of S          2.30E-08  (threshold= 1.00E-08)
 Ratio eigmin/eigmax               2.30E-08  (threshold= 1.00E-09)
 Smallest eigenvalue of S kept     2.30E-08  (threshold= 2.30E-08, 0 functions deleted, 376 kept)
 
 CPU time for CABS singles                        0.18 sec

 CABS-singles contribution of  -0.01592193 patched into reference energy.
 New reference energy        -263.78570775
 
 AO(A)-basis ORBITAL           loaded. Number of functions:     230
 RI(R)-basis CC-PVTZ/JKFIT     loaded. Number of functions:     376
 DF-basis AUG-CC-PVTZ/MP2FIT   loaded. Number of functions:     516

 Screening thresholds:   THRAO=  1.00D-10  THRMO=  1.00D-09  THRPROD=  1.00D-09
                         THRSW=  1.00D-05  THROV=  1.00D-12  THRF12=   1.00D-08

 CPU time for 3-index integral evaluation         2.32 sec
 CPU time for first  half transformation          0.25 sec (11365.0 MFLOP/sec)
 CPU time for second half transformation          0.04 sec ( 2537.7 MFLOP/sec)
 CPU time for sorting                             0.20 sec
 CPU time for fitting                             0.06 sec (23217.5 MFLOP/sec)
 CPU time for tilde quantities                    0.07 sec (26412.6 MFLOP/sec)
 CPU time for assembly                            0.87 sec (27631.7 MFLOP/sec)
 CPU time for tranop_f12                          1.00 sec (31479.5 MFLOP/sec)
 CPU time for f12 integrals (total)               7.13 sec
 F12-matrices built in  3 passes.
 F12-matrices built in  3 passes.
 F12-matrices built in  3 passes.
 F12-matrices built in  3 passes.
 FC-matrix built in  3 passes.
 CPU time for f12 matrices (total)                0.54 sec

 Diagonal F12 approximation with fixed coefficients:  TSING= 0.500,  TTRIP= 0.250 (scaled by -1/beta)

 DF-MP2-F12 energy corrections:
 ------------------------------
 Approx.                                    Singlet             Triplet             Total
 DF-MP2-F12/3*C(DX,FIX)                -0.097448310921     -0.016933244394     -0.114381555314
 DF-MP2-F12/3*C(FIX)                   -0.079865768052     -0.013395336605     -0.093261104657
 DF-MP2-F12/3C(FIX)                    -0.080226446978     -0.013418526204     -0.093644973182

 DF-MP2-F12 correlation energies:
 --------------------------------
 Approx.                                    Singlet             Triplet             Ecorr            Total Energy
 DF-MP2                                -0.537699384657     -0.343060128507     -0.880759513164   -264.666467263441
 DF-MP2-F12/3*C(DX,FIX)                -0.635147695577     -0.359993372901     -0.995141068478   -264.780848818755
 DF-MP2-F12/3*C(FIX)                   -0.617565152708     -0.356455465112     -0.974020617821   -264.759728368098
 DF-MP2-F12/3C(FIX)                    -0.617925831634     -0.356478654712     -0.974404486346   -264.760112236623

 SCS-DF-MP2 energies (F_SING= 1.20000  F_TRIP= 0.62222  F_PARALLEL= 0.33333):
 ----------------------------------------------------------------------------
 SCS-DF-MP2                            -0.858698897104   -264.644406647380
 SCS-DF-MP2-F12/3*C(DX,FIX)            -0.986173111165   -264.771880861441
 SCS-DF-MP2-F12/3*C(FIX)               -0.962872694875   -264.748580445152
 SCS-DF-MP2-F12/3C(FIX)                -0.963319938671   -264.749027688948

 Symmetry restored.
 Symmetry transformation completed.

 Number of N-1 electron functions:              12
 Number of N-2 electron functions:              78
 Number of singly external CSFs:              1476
 Number of doubly external CSFs:           1686804
 Total number of CSFs:                     1688281

 Pair and operator lists are different

 Length of J-op  integral file:             466.42 MB
 Length of K-op  integral file:             526.62 MB
 Length of 3-ext integral record:             0.00 MB

 Memory could be reduced to 76.61 Mwords without degradation in triples

 Integral transformation finished. Total CPU:   6.08 sec, npass=  1  Memory used:  24.61 MW

 Reference energy:                   -263.78570775

 Adding F12 terms to K(Cij), methodcc=6,  factor=1.0

 ITER.      SQ.NORM     CORR.ENERGY   TOTAL ENERGY   ENERGY CHANGE        DEN1      VAR(S)    VAR(P)  DIIS     TIME
   1      1.20212340    -0.86272051  -264.64842826     0.01805540     0.04667348  0.72D-02  0.56D-02  1  1    18.57
   2      1.21643048    -0.85849821  -264.64420596     0.00422230    -0.02014448  0.86D-04  0.59D-03  2  2    22.13
   3      1.22179023    -0.85859515  -264.64430290    -0.00009693    -0.00236400  0.13D-03  0.32D-04  3  3    25.69
   4      1.22459167    -0.85846745  -264.64417520     0.00012770    -0.00141110  0.76D-05  0.41D-05  4  4    29.24
   5      1.22562138    -0.85842979  -264.64413754     0.00003766    -0.00036621  0.56D-06  0.29D-06  5  5    32.93
   6      1.22578353    -0.85840292  -264.64411067     0.00002686    -0.00000805  0.40D-07  0.24D-07  6  6    36.95
   7      1.22581288    -0.85840050  -264.64410825     0.00000242    -0.00000621  0.25D-08  0.40D-08  6  4    40.63
   8      1.22581318    -0.85840001  -264.64410776     0.00000049     0.00000194  0.39D-09  0.27D-09  6  1    44.15
   9      1.22581379    -0.85840008  -264.64410783    -0.00000007     0.00000056  0.26D-10  0.21D-10  6  2    47.56

 Norm of t1 vector:      0.10595148      S-energy:    -0.00000003      T1 diagnostic:  0.01529278
                                                                       D1 diagnostic:  0.04496671

 Adding energy correction from Wij-K(Fij), methodcc=6  factor=1.0
 
  CCSD correlation energy              -0.858400080622
  MP2-F12 correction (uncoupled)       -0.092489056765
  C*T doubles correction               -0.001474849729
  f12b correction                       0.015406809638


 Total CPU time for triples:     87.68 sec


 RESULTS
 =======

  Reference energy                   -263.769785822705
  F12 singles correction               -0.015921927572

 F12 singles corrections added to reference energy

  New reference energy               -263.785707750277

  F12a singlet correction              -0.080426617333
  F12a triplet correction              -0.013537289162
  F12a total correction                -0.093963906495

 F12a corrections for ansatz F12/3C(FIX) added to CCSD energy
 
  CCSD-F12a singlet pair energy        -0.641862925090
  CCSD-F12a triplet pair energy        -0.310501036926
  CCSD-F12a correlation energy         -0.952363987116

  Triples (T) contribution             -0.037634628233
  Total correlation energy             -0.989998615349

  CCSD-F12a total energy             -264.738071737393
  CCSD[T]-F12a energy                -264.778248553921
  CCSD-T-F12a energy                 -264.774769518447
 !CCSD(T)-F12a total energy          -264.775706365626

 F12b corrections for ansatz F12/3C(FIX) added to CCSD(T)-F12a energy

  CCSD-F12b singlet pair energy        -0.627679491259
  CCSD-F12b triplet pair energy        -0.309277661118
  CCSD-F12b correlation energy         -0.936957177478

  Triples (T) contribution             -0.037634628233
  Total correlation energy             -0.974591805711

  CCSD-F12b total energy             -264.722664927755
  CCSD[T]-F12b energy                -264.762841744283
  CCSD-T-F12b energy                 -264.759362708808
 !CCSD(T)-F12b total energy          -264.760299555987

 Timing summary (sec):

 STEP                 CPU(USER)    SYS     CPU(TOT)    WALL
 Transformation          6.12      0.65      6.77      6.76
 CCSD iterations        32.15      1.93     34.08     34.18
 Triples                87.68      1.57     89.25     89.21
 MP2-F12                 9.31      1.26     10.57     10.57
 F12b energy             2.19      0.04      2.23      2.22

 Program statistics:

 Available memory in ccsd:                99998934
 Min. memory needed in ccsd:               4458306
 Max. memory used in ccsd:                 5958390
 Max. memory used in cckext:               6352469 (10 integral passes)



 **********************************************************************************************************************************
 DATASETS  * FILE   NREC   LENGTH (MB)   RECORD NAMES
              1      20      269.66       500      610      700      900      950      970     1000      129      960     1100   
                                          VAR    BASINP    GEOM    SYMINP    ZMAT    AOBASIS   BASIS     P2S    ABASIS      S 
                                         1400     1410     1200     1210     1080     1600     1650     1700      960(1)  1380   
                                           T        V       H0       H01     AOSYM     SMH    MOLCAS    OPER    ABASIS    JKOP   

              2       5        1.55       700     1000     2100     7360     7350   
                                         GEOM     BASIS     RHF    F12ABS    EF12   

 PROGRAMS   *        TOTAL   CCSD(T)        HF       INT
 CPU TIMES  *       149.63    137.47      4.17      7.87
 REAL TIME  *       156.49 SEC
 DISK USED  *         1.94 GB      
 SF USED    *         1.53 GB      
 GA USED    *         2.40 MB       (max)       0.00 MB       (current)
 **********************************************************************************************************************************

     CCSD(T)-F12        HF-SCF  
   -264.76029956   -263.76978582
 **********************************************************************************************************************************
 Variable memory released
