
 Primary working directories    : /scratch/kee
 Secondary working directories  : /scratch/kee
 Wavefunction directory         : /home/kee/wfu/
 Main file repository           : /scratch/kee/

 ARCHNAME  : Linux/x86_64
 FC        : /opt/intel/composer_xe_2015.0.090/bin/intel64/ifort
 FCVERSION : 15.0.0
 BLASLIB   : -L/opt/intel/mkl/lib/intel64 -lmkl_intel_ilp64 -lmkl_sequential -lmkl_core
 id        : emory

 Nodes     nprocs
 node18       3
 Number of processes for MPI-2 version of Molpro:   nprocs(total)=    4   nprocs(compute)=    3   nprocs(helper)=    1
 ga_uses_ma=false, calling ma_init with nominal heap.
 GA-space will be limited to   8.0 MW (determined by -G option)

 Using customized tuning parameters: mindgm=7; mindgv=32; mindgc=1; mindgr=1; noblas=0; mincuda=1000; minvec=7
 default implementation of scratch files=sf  

 ***,co2h2o
 memory,100,m
 basis avtz
 geomtype = xyz
 geometry = {
 6
    -264.76489694
 O     0.82869278    1.16169550    0.00000000
 O     0.82658011   -1.16233555    0.00000000
 O    -5.59123432    0.00220996    0.00000000
 H    -6.17486733    0.76280461    0.00000000
 H    -6.17459922   -0.75859196    0.00000000
 C     0.80876519   -0.00029961    0.00000000
 }
 hf
 ccsd(t)-f12
 ---

 Variables initialized (665), CPU time= 0.00 sec
 Commands  initialized (462), CPU time= 0.01 sec, 486 directives.
 Default parameters read. Elapsed time= 0.05 sec

 Checking input...
 Passed
1


                                         ***  PROGRAM SYSTEM MOLPRO  ***
                         Copyright, University College Cardiff Consultants Limited, 2008

                                    Version 2010.1 linked 9 Dec 2014 15:06:28 


 **********************************************************************************************************************************
 LABEL *   co2h2o                                                                        
 Linux-2.6.32-504.el6.x86_64/node18(x86_64) 64 bit mpp version                           DATE: 11-Dec-16          TIME: 23:38:25  
 **********************************************************************************************************************************

 Patch level:      19
 **********************************************************************************************************************************

 Variable memory set to  100000000 words,  buffer space   230000 words

 SETTING BASIS          =    AVTZ
 SETTING GEOMTYPE       =    XYZ

Geometry recognized as XYZ



 Recomputing integrals since basis changed


 Using spherical harmonics

 Library entry O      S aug-cc-pVTZ          selected for orbital group  1
 Library entry O      P aug-cc-pVTZ          selected for orbital group  1
 Library entry O      D aug-cc-pVTZ          selected for orbital group  1
 Library entry O      F aug-cc-pVTZ          selected for orbital group  1
 Library entry H      S aug-cc-pVTZ          selected for orbital group  2
 Library entry H      P aug-cc-pVTZ          selected for orbital group  2
 Library entry H      D aug-cc-pVTZ          selected for orbital group  2
 Library entry C      S aug-cc-pVTZ          selected for orbital group  3
 Library entry C      P aug-cc-pVTZ          selected for orbital group  3
 Library entry C      D aug-cc-pVTZ          selected for orbital group  3
 Library entry C      F aug-cc-pVTZ          selected for orbital group  3

1PROGRAM * SEWARD (Integral evaluation for generally contracted gaussian basis sets)     Author: Roland Lindh, 1990

 Geometry written to block  1 of record 700


 Point group  Cs  



 ATOMIC COORDINATES

 NR  ATOM    CHARGE       X              Y              Z

   1  O       8.00    1.566002401    2.195286343    0.000000000
   2  O       8.00    1.562010034   -2.196495862    0.000000000
   3  O       8.00  -10.565901601    0.004176219    0.000000000
   4  H       1.00  -11.668808152    1.441491805    0.000000000
   5  H       1.00  -11.668301497   -1.433531050    0.000000000
   6  C       6.00    1.528344714   -0.000566181    0.000000000

 Bond lengths in Bohr (Angstrom)

 1-6  2.196175405  2-6  2.196187724  3-4  1.811706088  3-5  1.811708509
     (1.162165971)     (1.162172490)     (0.958713571)     (0.958714852)

 Bond angles

  1-6-2  178.13918425   4-3-5  105.01947441

 NUCLEAR CHARGE:                   32
 NUMBER OF PRIMITIVE AOS:         322
 NUMBER OF SYMMETRY AOS:          282
 NUMBER OF CONTRACTIONS:          230   ( 152A'  +  78A"  )
 NUMBER OF CORE ORBITALS:           4   (   4A'  +   0A"  )
 NUMBER OF VALENCE ORBITALS:       18   (  14A'  +   4A"  )


 NUCLEAR REPULSION ENERGY   85.09375003


 Eigenvalues of metric

         1 0.348E-03 0.373E-03 0.390E-03 0.392E-03 0.899E-03 0.921E-03 0.166E-02 0.173E-02
         2 0.318E-02 0.348E-02 0.592E-02 0.124E-01 0.136E-01 0.292E-01 0.296E-01 0.316E-01


 Contracted 2-electron integrals neglected if value below      1.0D-11
 AO integral compression algorithm  1   Integral accuracy      1.0D-11

     368.837 MB (compressed) written to integral file ( 24.0%)

     Node minimum: 117.441 MB, node maximum: 129.237 MB


 NUMBER OF SORTED TWO-ELECTRON INTEGRALS:   59950380.     BUFFER LENGTH:  32768
 NUMBER OF SEGMENTS:   4  SEGMENT LENGTH:   15995235      RECORD LENGTH: 524288

 Memory used in sort:      16.55 MW

 SORT1 READ   191683245. AND WROTE    26901853. INTEGRALS IN     78 RECORDS. CPU TIME:     2.28 SEC, REAL TIME:     2.55 SEC
 SORT2 READ    80983192. AND WROTE   179836431. INTEGRALS IN   1344 RECORDS. CPU TIME:     0.83 SEC, REAL TIME:     1.09 SEC

 Node minimum:    59940574.  Node maximum:    59950380. integrals

 OPERATOR DM      FOR CENTER  0  COORDINATES:    0.000000    0.000000    0.000000


 **********************************************************************************************************************************
 DATASETS  * FILE   NREC   LENGTH (MB)   RECORD NAMES
              1      18        3.74       500      610      700      900      950      970     1000      129      960     1100   
                                          VAR    BASINP    GEOM    SYMINP    ZMAT    AOBASIS   BASIS     P2S    ABASIS      S 
                                         1400     1410     1200     1210     1080     1600     1650     1700   
                                           T        V       H0       H01     AOSYM     SMH    MOLCAS    OPER   

 PROGRAMS   *        TOTAL       INT
 CPU TIMES  *         6.56      6.46
 REAL TIME  *         7.76 SEC
 DISK USED  *         1.33 GB      
 GA USED    *         0.00 MB       (max)       0.00 MB       (current)
 **********************************************************************************************************************************

1PROGRAM * RHF-SCF (CLOSED SHELL)       Authors: W. Meyer, H.-J. Werner


 NUMBER OF ELECTRONS:      16+   16-
 CONVERGENCE THRESHOLDS:    1.00E-05 (Density)    1.00E-07 (Energy)
 MAX. NUMBER OF ITERATIONS:       60
 INTERPOLATION TYPE:            DIIS
 INTERPOLATION STEPS:              2 (START)      1 (STEP)
 LEVEL SHIFTS:                  0.00 (CLOSED)  0.00 (OPEN) 



 Orbital guess generated from atomic densities. Full valence occupancy:   18   4

 Molecular orbital dump at record        2100.2

 Initial alpha occupancy:  13   3
 Initial beta  occupancy:  13   3
 Wave function symmetry:    1

 ITERATION    DDIFF          GRAD             ENERGY        2-EL.EN.            DIPOLE MOMENTS         DIIS
    1      0.000D+00      0.000D+00      -263.66078237    365.877532   -1.18423   -0.00012    0.00000    0
    2      0.000D+00      0.629D-02      -263.72596326    361.256602   -0.69542   -0.00009    0.00000    1
    3      0.101D-01      0.427D-02      -263.76912280    363.823570   -0.81666   -0.00009    0.00000    2
    4      0.415D-02      0.402D-03      -263.76961780    363.612702   -0.81987   -0.00009    0.00000    3
    5      0.485D-03      0.117D-03      -263.76967580    363.614125   -0.81455   -0.00009    0.00000    4
    6      0.181D-03      0.472D-04      -263.76968297    363.628750   -0.81524   -0.00009    0.00000    5
    7      0.604D-04      0.115D-04      -263.76968370    363.620360   -0.81479   -0.00009    0.00000    6
    8      0.197D-04      0.254D-05      -263.76968375    363.621663   -0.81480   -0.00009    0.00000    7
    9      0.541D-05      0.851D-06      -263.76968375    363.621468   -0.81477   -0.00009    0.00000    0

 Final occupancy:  13   3

 !RHF STATE 1.1 Energy               -263.769683752102
 Nuclear energy                        85.09375003
 One-electron energy                 -530.67416776
 Two-electron energy                  181.81073398
 Virial quotient                       -1.00183083
 !RHF STATE 1.1 Dipole moment          -0.81476985    -0.00009054     0.00000000
 Dipole moment /Debye                  -2.07080277    -0.00023011     0.00000000

 Orbital energies:

         1.1          2.1          3.1          4.1          5.1          6.1          7.1          8.1          9.1         10.1
    -20.648494   -20.648449   -20.568414   -11.457323    -1.526157    -1.473068    -1.353666    -0.796456    -0.738723    -0.719193

        11.1         12.1         13.1         14.1         15.1
     -0.710146    -0.584972    -0.539838     0.028203     0.047000

         1.2          2.2          3.2          4.2          5.2
     -0.710244    -0.539902    -0.511306     0.076882     0.158287


 **********************************************************************************************************************************
 DATASETS  * FILE   NREC   LENGTH (MB)   RECORD NAMES
              1      18        3.76       500      610      700      900      950      970     1000      129      960     1100   
                                          VAR    BASINP    GEOM    SYMINP    ZMAT    AOBASIS   BASIS     P2S    ABASIS      S 
                                         1400     1410     1200     1210     1080     1600     1650     1700   
                                           T        V       H0       H01     AOSYM     SMH    MOLCAS    OPER   

              2       3        0.96       700     1000     2100   
                                         GEOM     BASIS     RHF  

 PROGRAMS   *        TOTAL        HF       INT
 CPU TIMES  *        10.43      3.87      6.46
 REAL TIME  *        11.86 SEC
 DISK USED  *         1.35 GB      
 SF USED    *         0.12 MB      
 GA USED    *         0.00 MB       (max)       0.00 MB       (current)
 **********************************************************************************************************************************


1PROGRAM * CCSD (Closed-shell coupled cluster)     Authors: C. Hampel, H.-J. Werner, 1991, M. Deegan, P.J. Knowles, 1992

                                  CCSD-F12 implementation by  H.-J. Werner, 2007

                   Density fitting integral evaluation by F.R. Manby, 2003,2007, G. Knizia, 2010

 Basis set CC-PVTZ/JKFIT generated.      Number of basis functions:   376 
 Basis set AUG-CC-PVTZ/MP2FIT generated. Number of basis functions:   516 

 Convergence thresholds:  THRVAR = 1.00D-08  THRDEN = 1.00D-06

 CCSD(T)     terms to be evaluated (factor= 1.000)


 Number of core orbitals:           4 (   4   0 )
 Number of closed-shell orbitals:  12 (   9   3 )
 Number of external orbitals:     214 ( 139  75 )

 Molecular orbitals read from record     2100.2  Type=RHF/CANONICAL (state 1.1)

 MP2-F12 correlation treatment (H.-J. Werner, 2006)
 --------------------------------------------------

 Using MP2-F12 with ansatz 3C(FIX)

 Using projected zeroth-order Hamiltonian (+Z)

 FOCKRIB=T FOCKRIC=T FOCKRIP=T CABSP=T CABSA=T CABSK=T CABSF=T GBC=F EBC=F DMAT=T NOFIK=T NOPAO=1 SOLVE=-1  USEPAO=0
 EXCH_A= T EXCH_B= F EXCH_C= F EXCH_P= F
 
 Geminal basis:    OPTFULL  GEM_TYPE=SLATER  BETA=1.0  NGEM=6

 Optimizing Gaussian exponents for each gem_beta

 Geminal optimization for beta= 1.0000
 Weight function:   m=0, omega= 1.4646

 Augmented Hessian optimization of geminal fit. Trust ratio= 0.40000
 Convergence reached after   2 iterations. Final gradient= 8.24D-16, Step= 4.32D-06, Delta= 1.28D-09
 
 Alpha:                 0.19532     0.81920     2.85917     9.50073    35.69989   197.79328
 Coeff:                 0.27070     0.30552     0.18297     0.10986     0.06810     0.04224
 

 Symmetry turned off. Reference energy:       -263.769683752102

 All pairs explicitly correlated. Number of r12-pairs:           78
 
 AO(A)-basis ORBITAL           loaded. Number of functions:     230
 RI(R)-basis CC-PVTZ/JKFIT     loaded. Number of functions:     376
 DF-basis CC-PVTZ/JKFIT        loaded. Number of functions:     376

 Screening thresholds:   THRAO=  1.00D-10  THRMO=  1.00D-09  THRPROD=  1.00D-09
                         THRSW=  1.00D-05  THROV=  1.00D-12  THRF12=   1.00D-08

 CPU time for Fock operators                      1.04 sec
 
 Construction of ABS:
 Smallest eigenvalue of S          2.57E-04  (threshold= 1.00E-08)
 Ratio eigmin/eigmax               1.83E-06  (threshold= 1.00E-09)
 Smallest eigenvalue of S kept     2.57E-04  (threshold= 2.57E-04, 0 functions deleted, 376 kept)
 
 Construction of CABS:
 Smallest eigenvalue of S          2.30E-08  (threshold= 1.00E-08)
 Ratio eigmin/eigmax               2.30E-08  (threshold= 1.00E-09)
 Smallest eigenvalue of S kept     2.30E-08  (threshold= 2.30E-08, 0 functions deleted, 376 kept)
 
 CPU time for CABS singles                        0.19 sec

 CABS-singles contribution of  -0.01592244 patched into reference energy.
 New reference energy        -263.78560619
 
 AO(A)-basis ORBITAL           loaded. Number of functions:     230
 RI(R)-basis CC-PVTZ/JKFIT     loaded. Number of functions:     376
 DF-basis AUG-CC-PVTZ/MP2FIT   loaded. Number of functions:     516

 Screening thresholds:   THRAO=  1.00D-10  THRMO=  1.00D-09  THRPROD=  1.00D-09
                         THRSW=  1.00D-05  THROV=  1.00D-12  THRF12=   1.00D-08

 CPU time for 3-index integral evaluation         2.30 sec
 CPU time for first  half transformation          0.29 sec ( 8362.0 MFLOP/sec)
 CPU time for second half transformation          0.03 sec ( 3111.8 MFLOP/sec)
 CPU time for sorting                             0.18 sec
 CPU time for fitting                             0.08 sec (17200.1 MFLOP/sec)
 CPU time for tilde quantities                    0.06 sec (30814.7 MFLOP/sec)
 CPU time for assembly                            0.90 sec (26124.9 MFLOP/sec)
 CPU time for tranop_f12                          1.06 sec (30318.9 MFLOP/sec)
 CPU time for f12 integrals (total)               7.28 sec
 F12-matrices built in  3 passes.
 F12-matrices built in  3 passes.
 F12-matrices built in  3 passes.
 F12-matrices built in  3 passes.
 FC-matrix built in  3 passes.
 CPU time for f12 matrices (total)                0.65 sec

 Diagonal F12 approximation with fixed coefficients:  TSING= 0.500,  TTRIP= 0.250 (scaled by -1/beta)

 DF-MP2-F12 energy corrections:
 ------------------------------
 Approx.                                    Singlet             Triplet             Total
 DF-MP2-F12/3*C(DX,FIX)                -0.097450362239     -0.016933623179     -0.114383985419
 DF-MP2-F12/3*C(FIX)                   -0.079867329602     -0.013395719309     -0.093263048911
 DF-MP2-F12/3C(FIX)                    -0.080227865988     -0.013418846478     -0.093646712466

 DF-MP2-F12 correlation energies:
 --------------------------------
 Approx.                                    Singlet             Triplet             Ecorr            Total Energy
 DF-MP2                                -0.537706727451     -0.343060047194     -0.880766774645   -264.666372963271
 DF-MP2-F12/3*C(DX,FIX)                -0.635157089690     -0.359993670374     -0.995150760064   -264.780756948690
 DF-MP2-F12/3*C(FIX)                   -0.617574057053     -0.356455766503     -0.974029823556   -264.759636012182
 DF-MP2-F12/3C(FIX)                    -0.617934593439     -0.356478893672     -0.974413487111   -264.760019675737

 SCS-DF-MP2 energies (F_SING= 1.20000  F_TRIP= 0.62222  F_PARALLEL= 0.33333):
 ----------------------------------------------------------------------------
 SCS-DF-MP2                            -0.858707657862   -264.644313846488
 SCS-DF-MP2-F12/3*C(DX,FIX)            -0.986184569194   -264.771790757820
 SCS-DF-MP2-F12/3*C(FIX)               -0.962883567621   -264.748489756247
 SCS-DF-MP2-F12/3C(FIX)                -0.963330601523   -264.748936790149

 Symmetry restored.
 Symmetry transformation completed.

 Number of N-1 electron functions:              12
 Number of N-2 electron functions:              78
 Number of singly external CSFs:              1476
 Number of doubly external CSFs:           1686804
 Total number of CSFs:                     1688281

 Pair and operator lists are different

 Length of J-op  integral file:             466.42 MB
 Length of K-op  integral file:             526.62 MB
 Length of 3-ext integral record:             0.00 MB

 Memory could be reduced to 76.61 Mwords without degradation in triples

 Integral transformation finished. Total CPU:   4.86 sec, npass=  1  Memory used:  24.61 MW

 Reference energy:                   -263.78560619

 Adding F12 terms to K(Cij), methodcc=6,  factor=1.0

 ITER.      SQ.NORM     CORR.ENERGY   TOTAL ENERGY   ENERGY CHANGE        DEN1      VAR(S)    VAR(P)  DIIS     TIME
   1      1.20212991    -0.86272553  -264.64833171     0.01805770     0.04668029  0.72D-02  0.56D-02  1  1    17.38
   2      1.21643856    -0.85850152  -264.64410770     0.00422401    -0.02014693  0.86D-04  0.59D-03  2  2    20.45
   3      1.22179828    -0.85859812  -264.64420431    -0.00009660    -0.00236388  0.13D-03  0.32D-04  3  3    23.63
   4      1.22459971    -0.85847037  -264.64407656     0.00012774    -0.00141113  0.76D-05  0.41D-05  4  4    26.62
   5      1.22562948    -0.85843270  -264.64403889     0.00003767    -0.00036627  0.56D-06  0.29D-06  5  5    29.74
   6      1.22579165    -0.85840584  -264.64401203     0.00002686    -0.00000805  0.40D-07  0.24D-07  6  6    33.14
   7      1.22582099    -0.85840342  -264.64400961     0.00000242    -0.00000621  0.25D-08  0.40D-08  6  4    37.16
   8      1.22582129    -0.85840293  -264.64400912     0.00000049     0.00000195  0.39D-09  0.27D-09  6  1    40.15
   9      1.22582191    -0.85840300  -264.64400919    -0.00000007     0.00000056  0.26D-10  0.21D-10  6  2    43.17

 Norm of t1 vector:      0.10595209      S-energy:    -0.00000002      T1 diagnostic:  0.01529287
                                                                       D1 diagnostic:  0.04495919

 Adding energy correction from Wij-K(Fij), methodcc=6  factor=1.0
 
  CCSD correlation energy              -0.858402997765
  MP2-F12 correction (uncoupled)       -0.092490653172
  C*T doubles correction               -0.001475120766
  f12b correction                       0.015406973302


 Total CPU time for triples:     81.23 sec


 RESULTS
 =======

  Reference energy                   -263.769683752102
  F12 singles correction               -0.015922436524

 F12 singles corrections added to reference energy

  New reference energy               -263.785606188626

  F12a singlet correction              -0.080428136172
  F12a triplet correction              -0.013537637766
  F12a total correction                -0.093965773938

 F12a corrections for ansatz F12/3C(FIX) added to CCSD energy
 
  CCSD-F12a singlet pair energy        -0.641871927115
  CCSD-F12a triplet pair energy        -0.310496819706
  CCSD-F12a correlation energy         -0.952368771703

  Triples (T) contribution             -0.037635208113
  Total correlation energy             -0.990003979817

  CCSD-F12a total energy             -264.737974960329
  CCSD[T]-F12a energy                -264.778152778767
  CCSD-T-F12a energy                 -264.774673088447
 !CCSD(T)-F12a total energy          -264.775610168442

 F12b corrections for ansatz F12/3C(FIX) added to CCSD(T)-F12a energy

  CCSD-F12b singlet pair energy        -0.627688321323
  CCSD-F12b triplet pair energy        -0.309273452197
  CCSD-F12b correlation energy         -0.936961798401

  Triples (T) contribution             -0.037635208113
  Total correlation energy             -0.974597006515

  CCSD-F12b total energy             -264.722567987027
  CCSD[T]-F12b energy                -264.762745805465
  CCSD-T-F12b energy                 -264.759266115145
 !CCSD(T)-F12b total energy          -264.760203195141

 Timing summary (sec):

 STEP                 CPU(USER)    SYS     CPU(TOT)    WALL
 Transformation          4.90      0.56      5.46      5.48
 CCSD iterations        28.61      1.65     30.26     30.49
 Triples                81.23      1.62     82.85     82.84
 MP2-F12                 9.67      1.38     11.05     11.05
 F12b energy             1.90      0.03      1.93      1.92

 Program statistics:

 Available memory in ccsd:                99998934
 Min. memory needed in ccsd:               4458306
 Max. memory used in ccsd:                 5958390
 Max. memory used in cckext:               6352469 (10 integral passes)



 **********************************************************************************************************************************
 DATASETS  * FILE   NREC   LENGTH (MB)   RECORD NAMES
              1      20      269.66       500      610      700      900      950      970     1000      129      960     1100   
                                          VAR    BASINP    GEOM    SYMINP    ZMAT    AOBASIS   BASIS     P2S    ABASIS      S 
                                         1400     1410     1200     1210     1080     1600     1650     1700      960(1)  1380   
                                           T        V       H0       H01     AOSYM     SMH    MOLCAS    OPER    ABASIS    JKOP   

              2       5        1.55       700     1000     2100     7360     7350   
                                         GEOM     BASIS     RHF    F12ABS    EF12   

 PROGRAMS   *        TOTAL   CCSD(T)        HF       INT
 CPU TIMES  *       136.78    126.35      3.87      6.46
 REAL TIME  *       143.94 SEC
 DISK USED  *         1.79 GB      
 SF USED    *         1.53 GB      
 GA USED    *         2.40 MB       (max)       0.00 MB       (current)
 **********************************************************************************************************************************

     CCSD(T)-F12        HF-SCF  
   -264.76020320   -263.76968375
 **********************************************************************************************************************************
 Variable memory released
