
 Primary working directories    : /scratch/kee
 Secondary working directories  : /scratch/kee
 Wavefunction directory         : /home/kee/wfu/
 Main file repository           : /scratch/kee/

 ARCHNAME  : Linux/x86_64
 FC        : /opt/intel/composer_xe_2015.0.090/bin/intel64/ifort
 FCVERSION : 15.0.0
 BLASLIB   : -L/opt/intel/mkl/lib/intel64 -lmkl_intel_ilp64 -lmkl_sequential -lmkl_core
 id        : emory

 Nodes     nprocs
 node17       3
 Number of processes for MPI-2 version of Molpro:   nprocs(total)=    4   nprocs(compute)=    3   nprocs(helper)=    1
 ga_uses_ma=false, calling ma_init with nominal heap.
 GA-space will be limited to   8.0 MW (determined by -G option)

 Using customized tuning parameters: mindgm=7; mindgv=32; mindgc=1; mindgr=1; noblas=0; mincuda=1000; minvec=7
 default implementation of scratch files=sf  

 ***,co2h2o
 memory,100,m
 basis avtz
 geomtype = xyz
 geometry = {
 6
    -264.76489694
 O     0.82869278    1.16169550    0.00000000
 O     0.82658011   -1.16233555    0.00000000
 O   -53.49123064    0.02099250    0.00000000
 H   -54.07486365    0.78158715    0.00000000
 H   -54.07459554   -0.73980942    0.00000000
 C     0.80876519   -0.00029961    0.00000000
 }
 hf
 ccsd(t)-f12
 ---

 Variables initialized (665), CPU time= 0.00 sec
 Commands  initialized (462), CPU time= 0.01 sec, 486 directives.
 Default parameters read. Elapsed time= 0.03 sec

 Checking input...
 Passed
1


                                         ***  PROGRAM SYSTEM MOLPRO  ***
                         Copyright, University College Cardiff Consultants Limited, 2008

                                    Version 2010.1 linked 9 Dec 2014 15:06:28 


 **********************************************************************************************************************************
 LABEL *   co2h2o                                                                        
 Linux-2.6.32-504.el6.x86_64/node17(x86_64) 64 bit mpp version                           DATE: 12-Dec-16          TIME: 18:58:51  
 **********************************************************************************************************************************

 Patch level:      19
 **********************************************************************************************************************************

 Variable memory set to  100000000 words,  buffer space   230000 words

 SETTING BASIS          =    AVTZ
 SETTING GEOMTYPE       =    XYZ

Geometry recognized as XYZ



 Recomputing integrals since basis changed


 Using spherical harmonics

 Library entry O      S aug-cc-pVTZ          selected for orbital group  1
 Library entry O      P aug-cc-pVTZ          selected for orbital group  1
 Library entry O      D aug-cc-pVTZ          selected for orbital group  1
 Library entry O      F aug-cc-pVTZ          selected for orbital group  1
 Library entry H      S aug-cc-pVTZ          selected for orbital group  2
 Library entry H      P aug-cc-pVTZ          selected for orbital group  2
 Library entry H      D aug-cc-pVTZ          selected for orbital group  2
 Library entry C      S aug-cc-pVTZ          selected for orbital group  3
 Library entry C      P aug-cc-pVTZ          selected for orbital group  3
 Library entry C      D aug-cc-pVTZ          selected for orbital group  3
 Library entry C      F aug-cc-pVTZ          selected for orbital group  3

1PROGRAM * SEWARD (Integral evaluation for generally contracted gaussian basis sets)     Author: Roland Lindh, 1990

 Geometry written to block  1 of record 700


 Point group  Cs  



 ATOMIC COORDINATES

 NR  ATOM    CHARGE       X              Y              Z

   1  O       8.00    1.566002401    2.195286343    0.000000000
   2  O       8.00    1.562010034   -2.196495862    0.000000000
   3  O       8.00 -101.083776342    0.039670076    0.000000000
   4  H       1.00 -102.186682892    1.476985661    0.000000000
   5  H       1.00 -102.186176238   -1.398037193    0.000000000
   6  C       6.00    1.528344714   -0.000566181    0.000000000

 Bond lengths in Bohr (Angstrom)

 1-6  2.196175405  2-6  2.196187724  3-4  1.811706088  3-5  1.811708509
     (1.162165971)     (1.162172490)     (0.958713571)     (0.958714852)

 Bond angles

  1-6-2  178.13918425   4-3-5  105.01947441

 NUCLEAR CHARGE:                   32
 NUMBER OF PRIMITIVE AOS:         322
 NUMBER OF SYMMETRY AOS:          282
 NUMBER OF CONTRACTIONS:          230   ( 152A'  +  78A"  )
 NUMBER OF CORE ORBITALS:           4   (   4A'  +   0A"  )
 NUMBER OF VALENCE ORBITALS:       18   (  14A'  +   4A"  )


 NUCLEAR REPULSION ENERGY   69.60267335

 EXTRA SYMMETRY OF AOS IN SYMMETRY 1:   1 1 1 1 1 1 1 1 1 1   1 1 1 1 1 1 1 1 1 1   1 1 1 1 1 1 1 1 1 1   1 1 1 1 1 1 1 1 1 1
                                        1 1 1 1 1 1 1 1 1 1   1 1 1 1 1 1 1 1 1 1   2 2 2 2 2 2 2 2 2 2   2 2 2 2 2 2 2 2 2 2
                                        2 2 2 2 2 2 2 2 2 2   2 2 2 2 2 2 2 2 2 2   2 2 2 2 2 2 2 2 2 2   2 2 2 2 2 2 2 2 2 2
                                        2 2 1 1 1 1 1 1 1 1   1 1 1 1 1 1 1 1 1 1   1 1 1 1 1 1 1 1 1 1   1 1
 EXTRA SYMMETRY OF AOS IN SYMMETRY 2:   1 1 1 1 1 1 1 1 1 1   1 1 1 1 1 1 1 1 1 1   1 1 1 1 1 1 1 1 1 1   1 1 2 2 2 2 2 2 2 2
                                        2 2 2 2 2 2 2 2 2 2   2 2 2 2 2 2 2 2 2 2   2 2 1 1 1 1 1 1 1 1   1 1 1 1 1 1 1 1

 Eigenvalues of metric

         1 0.349E-03 0.384E-03 0.393E-03 0.420E-03 0.902E-03 0.922E-03 0.167E-02 0.175E-02
         2 0.318E-02 0.348E-02 0.595E-02 0.124E-01 0.136E-01 0.296E-01 0.297E-01 0.319E-01


 Contracted 2-electron integrals neglected if value below      1.0D-11
 AO integral compression algorithm  1   Integral accuracy      1.0D-11

     206.832 MB (compressed) written to integral file ( 42.6%)

     Node minimum: 59.769 MB, node maximum: 75.497 MB


 NUMBER OF SORTED TWO-ELECTRON INTEGRALS:   59950380.     BUFFER LENGTH:  32768
 NUMBER OF SEGMENTS:   4  SEGMENT LENGTH:   15995235      RECORD LENGTH: 524288

 Memory used in sort:      16.55 MW

 SORT1 READ    60689823. AND WROTE    14686509. INTEGRALS IN     44 RECORDS. CPU TIME:     0.88 SEC, REAL TIME:     1.04 SEC
 SORT2 READ    43782016. AND WROTE   179836431. INTEGRALS IN    864 RECORDS. CPU TIME:     0.53 SEC, REAL TIME:     0.71 SEC

 Node minimum:    59940574.  Node maximum:    59950380. integrals

 OPERATOR DM      FOR CENTER  0  COORDINATES:    0.000000    0.000000    0.000000


 **********************************************************************************************************************************
 DATASETS  * FILE   NREC   LENGTH (MB)   RECORD NAMES
              1      18        3.74       500      610      700      900      950      970     1000      129      960     1100   
                                          VAR    BASINP    GEOM    SYMINP    ZMAT    AOBASIS   BASIS     P2S    ABASIS      S 
                                         1400     1410     1200     1210     1080     1600     1650     1700   
                                           T        V       H0       H01     AOSYM     SMH    MOLCAS    OPER   

 PROGRAMS   *        TOTAL       INT
 CPU TIMES  *         3.13      3.07
 REAL TIME  *         3.54 SEC
 DISK USED  *       746.35 MB      
 GA USED    *         0.00 MB       (max)       0.00 MB       (current)
 **********************************************************************************************************************************

1PROGRAM * RHF-SCF (CLOSED SHELL)       Authors: W. Meyer, H.-J. Werner


 NUMBER OF ELECTRONS:      16+   16-
 CONVERGENCE THRESHOLDS:    1.00E-05 (Density)    1.00E-07 (Energy)
 MAX. NUMBER OF ITERATIONS:       60
 INTERPOLATION TYPE:            DIIS
 INTERPOLATION STEPS:              2 (START)      1 (STEP)
 LEVEL SHIFTS:                  0.00 (CLOSED)  0.00 (OPEN) 



 Orbital guess generated from atomic densities. Full valence occupancy:   18   4

 Molecular orbital dump at record        2100.2

 Initial alpha occupancy:  13   3
 Initial beta  occupancy:  13   3
 Wave function symmetry:    1

 ITERATION    DDIFF          GRAD             ENERGY        2-EL.EN.            DIPOLE MOMENTS         DIIS
    1      0.000D+00      0.000D+00      -263.66020518    334.625173   -1.18419   -0.00012    0.00000    0
    2      0.000D+00      0.630D-02      -263.72548987    330.099010   -0.67822   -0.00010    0.00000    1
    3      0.101D-01      0.428D-02      -263.76888045    332.651393   -0.80489   -0.00009    0.00000    2
    4      0.416D-02      0.402D-03      -263.76937561    332.437862   -0.80839   -0.00010    0.00000    3
    5      0.485D-03      0.117D-03      -263.76943359    332.441280   -0.80288   -0.00009    0.00000    4
    6      0.181D-03      0.471D-04      -263.76944074    332.455494   -0.80355   -0.00010    0.00000    5
    7      0.603D-04      0.116D-04      -263.76944147    332.447229   -0.80310   -0.00010    0.00000    6
    8      0.197D-04      0.254D-05      -263.76944152    332.448524   -0.80311   -0.00010    0.00000    7
    9      0.541D-05      0.852D-06      -263.76944152    332.448339   -0.80308   -0.00010    0.00000    0

 Final occupancy:  13   3

 !RHF STATE 1.1 Energy               -263.769441522876
 Nuclear energy                        69.60267335
 One-electron energy                 -499.59628436
 Two-electron energy                  166.22416949
 Virial quotient                       -1.00182783
 !RHF STATE 1.1 Dipole moment          -0.80307992    -0.00009531     0.00000000
 Dipole moment /Debye                  -2.04109186    -0.00024223     0.00000000

 Orbital energies:

         1.1          2.1          3.1          4.1          5.1          6.1          7.1          8.1          9.1         10.1
    -20.653407   -20.653361   -20.567240   -11.462157    -1.531069    -1.477965    -1.352484    -0.801270    -0.743515    -0.718021

        11.1         12.1         13.1         14.1         15.1
     -0.715119    -0.583682    -0.544720     0.029453     0.047346

         1.2          2.2          3.2          4.2          5.2
     -0.715126    -0.544743    -0.510095     0.072926     0.158496


 **********************************************************************************************************************************
 DATASETS  * FILE   NREC   LENGTH (MB)   RECORD NAMES
              1      18        3.76       500      610      700      900      950      970     1000      129      960     1100   
                                          VAR    BASINP    GEOM    SYMINP    ZMAT    AOBASIS   BASIS     P2S    ABASIS      S 
                                         1400     1410     1200     1210     1080     1600     1650     1700   
                                           T        V       H0       H01     AOSYM     SMH    MOLCAS    OPER   

              2       3        0.96       700     1000     2100   
                                         GEOM     BASIS     RHF  

 PROGRAMS   *        TOTAL        HF       INT
 CPU TIMES  *         5.75      2.62      3.07
 REAL TIME  *         6.27 SEC
 DISK USED  *       770.73 MB      
 SF USED    *         0.12 MB      
 GA USED    *         0.00 MB       (max)       0.00 MB       (current)
 **********************************************************************************************************************************


1PROGRAM * CCSD (Closed-shell coupled cluster)     Authors: C. Hampel, H.-J. Werner, 1991, M. Deegan, P.J. Knowles, 1992

                                  CCSD-F12 implementation by  H.-J. Werner, 2007

                   Density fitting integral evaluation by F.R. Manby, 2003,2007, G. Knizia, 2010

 Basis set CC-PVTZ/JKFIT generated.      Number of basis functions:   376 
 Basis set AUG-CC-PVTZ/MP2FIT generated. Number of basis functions:   516 

 Convergence thresholds:  THRVAR = 1.00D-08  THRDEN = 1.00D-06

 CCSD(T)     terms to be evaluated (factor= 1.000)


 Number of core orbitals:           4 (   4   0 )
 Number of closed-shell orbitals:  12 (   9   3 )
 Number of external orbitals:     214 ( 139  75 )

 Molecular orbitals read from record     2100.2  Type=RHF/CANONICAL (state 1.1)

 MP2-F12 correlation treatment (H.-J. Werner, 2006)
 --------------------------------------------------

 Using MP2-F12 with ansatz 3C(FIX)

 Using projected zeroth-order Hamiltonian (+Z)

 FOCKRIB=T FOCKRIC=T FOCKRIP=T CABSP=T CABSA=T CABSK=T CABSF=T GBC=F EBC=F DMAT=T NOFIK=T NOPAO=1 SOLVE=-1  USEPAO=0
 EXCH_A= T EXCH_B= F EXCH_C= F EXCH_P= F
 
 Geminal basis:    OPTFULL  GEM_TYPE=SLATER  BETA=1.0  NGEM=6

 Optimizing Gaussian exponents for each gem_beta

 Geminal optimization for beta= 1.0000
 Weight function:   m=0, omega= 1.4646

 Augmented Hessian optimization of geminal fit. Trust ratio= 0.40000
 Convergence reached after   2 iterations. Final gradient= 8.24D-16, Step= 4.32D-06, Delta= 1.28D-09
 
 Alpha:                 0.19532     0.81920     2.85917     9.50073    35.69989   197.79328
 Coeff:                 0.27070     0.30552     0.18297     0.10986     0.06810     0.04224
 

 Symmetry turned off. Reference energy:       -263.769441522876

 All pairs explicitly correlated. Number of r12-pairs:           78
 
 AO(A)-basis ORBITAL           loaded. Number of functions:     230
 RI(R)-basis CC-PVTZ/JKFIT     loaded. Number of functions:     376
 DF-basis CC-PVTZ/JKFIT        loaded. Number of functions:     376

 Screening thresholds:   THRAO=  1.00D-10  THRMO=  1.00D-09  THRPROD=  1.00D-09
                         THRSW=  1.00D-05  THROV=  1.00D-12  THRF12=   1.00D-08

 CPU time for Fock operators                      0.83 sec
 
 Construction of ABS:
 Smallest eigenvalue of S          2.57E-04  (threshold= 1.00E-08)
 Ratio eigmin/eigmax               1.83E-06  (threshold= 1.00E-09)
 Smallest eigenvalue of S kept     2.57E-04  (threshold= 2.57E-04, 0 functions deleted, 376 kept)
 
 Construction of CABS:
 Smallest eigenvalue of S          2.30E-08  (threshold= 1.00E-08)
 Ratio eigmin/eigmax               2.30E-08  (threshold= 1.00E-09)
 Smallest eigenvalue of S kept     2.30E-08  (threshold= 2.30E-08, 0 functions deleted, 376 kept)
 
 CPU time for CABS singles                        0.17 sec

 CABS-singles contribution of  -0.01592497 patched into reference energy.
 New reference energy        -263.78536649
 
 AO(A)-basis ORBITAL           loaded. Number of functions:     230
 RI(R)-basis CC-PVTZ/JKFIT     loaded. Number of functions:     376
 DF-basis AUG-CC-PVTZ/MP2FIT   loaded. Number of functions:     516

 Screening thresholds:   THRAO=  1.00D-10  THRMO=  1.00D-09  THRPROD=  1.00D-09
                         THRSW=  1.00D-05  THROV=  1.00D-12  THRF12=   1.00D-08

 CPU time for 3-index integral evaluation         1.30 sec
 CPU time for first  half transformation          0.12 sec ( 6121.0 MFLOP/sec)
 CPU time for sorting                             0.06 sec
 CPU time for fitting                             0.07 sec (19900.7 MFLOP/sec)
 CPU time for tilde quantities                    0.06 sec (30814.7 MFLOP/sec)
 CPU time for assembly                            0.77 sec (31065.8 MFLOP/sec)
 CPU time for tranop_f12                          0.83 sec (36385.7 MFLOP/sec)
 CPU time for f12 integrals (total)               5.17 sec
 F12-matrices built in  3 passes.
 F12-matrices built in  3 passes.
 F12-matrices built in  3 passes.
 F12-matrices built in  3 passes.
 FC-matrix built in  3 passes.
 CPU time for f12 matrices (total)                0.48 sec

 Diagonal F12 approximation with fixed coefficients:  TSING= 0.500,  TTRIP= 0.250 (scaled by -1/beta)

 DF-MP2-F12 energy corrections:
 ------------------------------
 Approx.                                    Singlet             Triplet             Total
 DF-MP2-F12/3*C(DX,FIX)                -0.097454481189     -0.016934569609     -0.114389050798
 DF-MP2-F12/3*C(FIX)                   -0.079869836485     -0.013396600838     -0.093266437323
 DF-MP2-F12/3C(FIX)                    -0.080230650326     -0.013419727673     -0.093650377999

 DF-MP2-F12 correlation energies:
 --------------------------------
 Approx.                                    Singlet             Triplet             Ecorr            Total Energy
 DF-MP2                                -0.537729474860     -0.343071967156     -0.880801442017   -264.666167931273
 DF-MP2-F12/3*C(DX,FIX)                -0.635183956050     -0.360006536765     -0.995190492815   -264.780556982072
 DF-MP2-F12/3*C(FIX)                   -0.617599311346     -0.356468567994     -0.974067879339   -264.759434368596
 DF-MP2-F12/3C(FIX)                    -0.617960125186     -0.356491694830     -0.974451820016   -264.759818309272

 SCS-DF-MP2 energies (F_SING= 1.20000  F_TRIP= 0.62222  F_PARALLEL= 0.33333):
 ----------------------------------------------------------------------------
 SCS-DF-MP2                            -0.858742371619   -264.644108860875
 SCS-DF-MP2-F12/3*C(DX,FIX)            -0.986224814580   -264.771591303837
 SCS-DF-MP2-F12/3*C(FIX)               -0.962921838144   -264.748288327401
 SCS-DF-MP2-F12/3C(FIX)                -0.963369204784   -264.748735694041

 Symmetry restored.
 Symmetry transformation completed.

 Number of N-1 electron functions:              12
 Number of N-2 electron functions:              78
 Number of singly external CSFs:              1476
 Number of doubly external CSFs:           1686804
 Total number of CSFs:                     1688281

 Pair and operator lists are different

 Length of J-op  integral file:             466.42 MB
 Length of K-op  integral file:             526.62 MB
 Length of 3-ext integral record:             0.00 MB

 Memory could be reduced to 76.61 Mwords without degradation in triples

 Integral transformation finished. Total CPU:   3.97 sec, npass=  1  Memory used:  24.61 MW

 Reference energy:                   -263.78536649

 Adding F12 terms to K(Cij), methodcc=6,  factor=1.0

 ITER.      SQ.NORM     CORR.ENERGY   TOTAL ENERGY   ENERGY CHANGE        DEN1      VAR(S)    VAR(P)  DIIS     TIME
   1      1.20215150    -0.86275210  -264.64811859     0.01806582     0.04669993  0.72D-02  0.56D-02  1  1    13.13
   2      1.21646473    -0.85852427  -264.64389076     0.00422783    -0.02015361  0.86D-04  0.59D-03  2  2    15.49
   3      1.22182491    -0.85862022  -264.64398671    -0.00009595    -0.00236381  0.13D-03  0.32D-04  3  3    17.84
   4      1.22462655    -0.85849233  -264.64385882     0.00012789    -0.00141123  0.76D-05  0.41D-05  4  4    20.18
   5      1.22565657    -0.85845462  -264.64382111     0.00003771    -0.00036641  0.56D-06  0.29D-06  5  5    22.71
   6      1.22581876    -0.85842776  -264.64379425     0.00002686    -0.00000805  0.40D-07  0.24D-07  6  6    25.08
   7      1.22584811    -0.85842533  -264.64379182     0.00000242    -0.00000622  0.25D-08  0.40D-08  6  4    27.53
   8      1.22584841    -0.85842485  -264.64379134     0.00000049     0.00000195  0.39D-09  0.27D-09  6  1    29.97
   9      1.22584902    -0.85842491  -264.64379140    -0.00000007     0.00000056  0.25D-10  0.21D-10  6  2    32.45

 Norm of t1 vector:      0.10595840      S-energy:    -0.00000002      T1 diagnostic:  0.01529378
                                                                       D1 diagnostic:  0.04494230

 Adding energy correction from Wij-K(Fij), methodcc=6  factor=1.0
 
  CCSD correlation energy              -0.858424912713
  MP2-F12 correction (uncoupled)       -0.092493371296
  C*T doubles correction               -0.001475763115
  f12b correction                       0.015407299445


 Total CPU time for triples:     90.94 sec


 RESULTS
 =======

  Reference energy                   -263.769441522876
  F12 singles correction               -0.015924966381

 F12 singles corrections added to reference energy

  New reference energy               -263.785366489257

  F12a singlet correction              -0.080430667756
  F12a triplet correction              -0.013538466656
  F12a total correction                -0.093969134411

 F12a corrections for ansatz F12/3C(FIX) added to CCSD energy
 
  CCSD-F12a singlet pair energy        -0.641896372235
  CCSD-F12a triplet pair energy        -0.310497650448
  CCSD-F12a correlation energy         -0.952394047124

  Triples (T) contribution             -0.037639517686
  Total correlation energy             -0.990033564810

  CCSD-F12a total energy             -264.737760536381
  CCSD[T]-F12a energy                -264.777943905470
  CCSD-T-F12a energy                 -264.774462372535
 !CCSD(T)-F12a total energy          -264.775400054067

 F12b corrections for ansatz F12/3C(FIX) added to CCSD(T)-F12a energy

  CCSD-F12b singlet pair energy        -0.627712425201
  CCSD-F12b triplet pair energy        -0.309274298036
  CCSD-F12b correlation energy         -0.936986747679

  Triples (T) contribution             -0.037639517686
  Total correlation energy             -0.974626265365

  CCSD-F12b total energy             -264.722353236936
  CCSD[T]-F12b energy                -264.762536606025
  CCSD-T-F12b energy                 -264.759055073090
 !CCSD(T)-F12b total energy          -264.759992754622

 Timing summary (sec):

 STEP                 CPU(USER)    SYS     CPU(TOT)    WALL
 Transformation          4.00      0.51      4.51      4.50
 CCSD iterations        21.43      1.28     22.71     22.72
 Triples                90.94      2.32     93.26     93.21
 MP2-F12                 7.04      1.08      8.12      8.12
 F12b energy             1.49      0.02      1.51      1.51

 Program statistics:

 Available memory in ccsd:                99998934
 Min. memory needed in ccsd:               4458306
 Max. memory used in ccsd:                 5958390
 Max. memory used in cckext:               6352469 (10 integral passes)



 **********************************************************************************************************************************
 DATASETS  * FILE   NREC   LENGTH (MB)   RECORD NAMES
              1      20      269.66       500      610      700      900      950      970     1000      129      960     1100   
                                          VAR    BASINP    GEOM    SYMINP    ZMAT    AOBASIS   BASIS     P2S    ABASIS      S 
                                         1400     1410     1200     1210     1080     1600     1650     1700      960(1)  1380   
                                           T        V       H0       H01     AOSYM     SMH    MOLCAS    OPER    ABASIS    JKOP   

              2       5        1.55       700     1000     2100     7360     7350   
                                         GEOM     BASIS     RHF    F12ABS    EF12   

 PROGRAMS   *        TOTAL   CCSD(T)        HF       INT
 CPU TIMES  *       130.74    124.99      2.62      3.07
 REAL TIME  *       136.62 SEC
 DISK USED  *         1.21 GB      
 SF USED    *         1.53 GB      
 GA USED    *         2.40 MB       (max)       0.00 MB       (current)
 **********************************************************************************************************************************

     CCSD(T)-F12        HF-SCF  
   -264.75999275   -263.76944152
 **********************************************************************************************************************************
 Variable memory released
