
 Primary working directories    : /scratch/kee
 Secondary working directories  : /scratch/kee
 Wavefunction directory         : /home/kee/wfu/
 Main file repository           : /scratch/kee/

 ARCHNAME  : Linux/x86_64
 FC        : /opt/intel/composer_xe_2015.0.090/bin/intel64/ifort
 FCVERSION : 15.0.0
 BLASLIB   : -L/opt/intel/mkl/lib/intel64 -lmkl_intel_ilp64 -lmkl_sequential -lmkl_core
 id        : emory

 Nodes     nprocs
 node25       3
 Number of processes for MPI-2 version of Molpro:   nprocs(total)=    4   nprocs(compute)=    3   nprocs(helper)=    1
 ga_uses_ma=false, calling ma_init with nominal heap.
 GA-space will be limited to   8.0 MW (determined by -G option)

 Using customized tuning parameters: mindgm=7; mindgv=32; mindgc=1; mindgr=1; noblas=0; mincuda=1000; minvec=7
 default implementation of scratch files=sf  

 ***,co2h2o
 memory,100,m
 basis avtz
 geomtype = xyz
 geometry = {
 6
       0.00000000
 O     0.00351000    1.16210700    0.00000000
 O     0.00351000   -1.16210700    0.00000000
 O     5.11968000    0.00000000    0.00000000
 H     5.70589800    0.00000000    0.75853100
 H     5.70589800    0.00000000   -0.75853100
 C     0.01968000    0.00000000    0.00000000
 }
 hf
 ccsd(t)-f12
 ---

 Variables initialized (665), CPU time= 0.01 sec
 Commands  initialized (462), CPU time= 0.01 sec, 486 directives.
 Default parameters read. Elapsed time= 0.03 sec

 Checking input...
 Passed
1


                                         ***  PROGRAM SYSTEM MOLPRO  ***
                         Copyright, University College Cardiff Consultants Limited, 2008

                                    Version 2010.1 linked 9 Dec 2014 15:06:28 


 **********************************************************************************************************************************
 LABEL *   co2h2o                                                                        
 Linux-2.6.32-504.el6.x86_64/node25(x86_64) 64 bit mpp version                           DATE: 12-Dec-16          TIME: 14:11:58  
 **********************************************************************************************************************************

 Patch level:      19
 **********************************************************************************************************************************

 Variable memory set to  100000000 words,  buffer space   230000 words

 SETTING BASIS          =    AVTZ
 SETTING GEOMTYPE       =    XYZ

Geometry recognized as XYZ



 Recomputing integrals since basis changed


 Using spherical harmonics

 Library entry O      S aug-cc-pVTZ          selected for orbital group  1
 Library entry O      P aug-cc-pVTZ          selected for orbital group  1
 Library entry O      D aug-cc-pVTZ          selected for orbital group  1
 Library entry O      F aug-cc-pVTZ          selected for orbital group  1
 Library entry H      S aug-cc-pVTZ          selected for orbital group  2
 Library entry H      P aug-cc-pVTZ          selected for orbital group  2
 Library entry H      D aug-cc-pVTZ          selected for orbital group  2
 Library entry C      S aug-cc-pVTZ          selected for orbital group  3
 Library entry C      P aug-cc-pVTZ          selected for orbital group  3
 Library entry C      D aug-cc-pVTZ          selected for orbital group  3
 Library entry C      F aug-cc-pVTZ          selected for orbital group  3

1PROGRAM * SEWARD (Integral evaluation for generally contracted gaussian basis sets)     Author: Roland Lindh, 1990

 Geometry written to block  1 of record 700


 Point group  C2v 



 ATOMIC COORDINATES

 NR  ATOM    CHARGE       X              Y              Z

   1  O       8.00    0.006632939    2.196063965    0.000000000
   2  O       8.00    0.006632939   -2.196063965    0.000000000
   3  O       8.00    9.674793081    0.000000000    0.000000000
   4  H       1.00   10.782584554    0.000000000    1.433415852
   5  H       1.00   10.782584554    0.000000000   -1.433415852
   6  C       6.00    0.037189810    0.000000000    0.000000000

 Bond lengths in Bohr (Angstrom)

 1-6  2.196276545  2-6  2.196276545  3-4  1.811596797  3-5  1.811596797
     (1.162219492)     (1.162219492)     (0.958655737)     (0.958655737)

 Bond angles

  1-6-2  178.40563223   4-3-5  104.60391356

 NUCLEAR CHARGE:                   32
 NUMBER OF PRIMITIVE AOS:         322
 NUMBER OF SYMMETRY AOS:          282
 NUMBER OF CONTRACTIONS:          230   (  84A1  +  59B1  +  54B2  +  33A2  )
 NUMBER OF CORE ORBITALS:           4   (   3A1  +   1B1  +   0B2  +   0A2  )
 NUMBER OF VALENCE ORBITALS:       18   (   8A1  +   5B1  +   4B2  +   1A2  )


 NUCLEAR REPULSION ENERGY   89.34594366


 Eigenvalues of metric

         1 0.358E-03 0.393E-03 0.898E-03 0.167E-02 0.315E-02 0.320E-02 0.396E-02 0.431E-02
         2 0.349E-03 0.921E-03 0.175E-02 0.339E-02 0.568E-02 0.744E-02 0.182E-01 0.209E-01
         3 0.390E-03 0.165E-02 0.318E-02 0.494E-02 0.621E-02 0.996E-02 0.135E-01 0.155E-01
         4 0.348E-02 0.124E-01 0.296E-01 0.363E-01 0.561E-01 0.679E-01 0.110E+00 0.139E+00


 Contracted 2-electron integrals neglected if value below      1.0D-11
 AO integral compression algorithm  1   Integral accuracy      1.0D-11

     250.872 MB (compressed) written to integral file ( 28.2%)

     Node minimum: 74.449 MB, node maximum: 92.799 MB


 NUMBER OF SORTED TWO-ELECTRON INTEGRALS:   29979201.     BUFFER LENGTH:  32768
 NUMBER OF SEGMENTS:   2  SEGMENT LENGTH:   15996954      RECORD LENGTH: 524288

 Memory used in sort:      16.55 MW

 SORT1 READ   111154380. AND WROTE    17605253. INTEGRALS IN     52 RECORDS. CPU TIME:     2.06 SEC, REAL TIME:     2.28 SEC
 SORT2 READ    52934667. AND WROTE    89930217. INTEGRALS IN    957 RECORDS. CPU TIME:     0.56 SEC, REAL TIME:     0.70 SEC

 Node minimum:    29974277.  Node maximum:    29979201. integrals

 OPERATOR DM      FOR CENTER  0  COORDINATES:    0.000000    0.000000    0.000000


 **********************************************************************************************************************************
 DATASETS  * FILE   NREC   LENGTH (MB)   RECORD NAMES
              1      18        3.23       500      610      700      900      950      970     1000      129      960     1100   
                                          VAR    BASINP    GEOM    SYMINP    ZMAT    AOBASIS   BASIS     P2S    ABASIS      S 
                                         1400     1410     1200     1210     1080     1600     1650     1700   
                                           T        V       H0       H01     AOSYM     SMH    MOLCAS    OPER   

 PROGRAMS   *        TOTAL       INT
 CPU TIMES  *         4.69      4.62
 REAL TIME  *         5.28 SEC
 DISK USED  *       889.01 MB      
 GA USED    *         0.00 MB       (max)       0.00 MB       (current)
 **********************************************************************************************************************************

1PROGRAM * RHF-SCF (CLOSED SHELL)       Authors: W. Meyer, H.-J. Werner


 NUMBER OF ELECTRONS:      16+   16-
 CONVERGENCE THRESHOLDS:    1.00E-05 (Density)    1.00E-07 (Energy)
 MAX. NUMBER OF ITERATIONS:       60
 INTERPOLATION TYPE:            DIIS
 INTERPOLATION STEPS:              2 (START)      1 (STEP)
 LEVEL SHIFTS:                  0.00 (CLOSED)  0.00 (OPEN) 



 Orbital guess generated from atomic densities. Full valence occupancy:   11   6   4   1

 Molecular orbital dump at record        2100.2

 Initial alpha occupancy:   8   5   2   1
 Initial beta  occupancy:   8   5   2   1
 Wave function symmetry:    1

 ITERATION    DDIFF          GRAD             ENERGY        2-EL.EN.            DIPOLE MOMENTS         DIIS
    1      0.000D+00      0.000D+00      -263.66130495    374.514495    1.18069    0.00000    0.00000    0
    2      0.000D+00      0.886D-02      -263.72642733    369.852877    0.71295    0.00000    0.00000    1
    3      0.142D-01      0.601D-02      -263.76935629    372.422771    0.82717    0.00000    0.00000    2
    4      0.586D-02      0.568D-03      -263.76985130    372.214024    0.83041    0.00000    0.00000    3
    5      0.695D-03      0.165D-03      -263.76990940    372.214090    0.82526    0.00000    0.00000    4
    6      0.259D-03      0.669D-04      -263.76991663    372.229048    0.82601    0.00000    0.00000    5
    7      0.858D-04      0.163D-04      -263.76991736    372.220593    0.82557    0.00000    0.00000    6
    8      0.281D-04      0.359D-05      -263.76991741    372.221905    0.82558    0.00000    0.00000    7
    9      0.768D-05      0.121D-05      -263.76991741    372.221702    0.82555    0.00000    0.00000    0

 Final occupancy:   8   5   2   1

 !RHF STATE 1.1 Energy               -263.769917410741
 Nuclear energy                        89.34594366
 One-electron energy                 -539.22671208
 Two-electron energy                  186.11085101
 Virial quotient                       -1.00183215
 !RHF STATE 1.1 Dipole moment           0.82555041     0.00000000     0.00000000
 Dipole moment /Debye                   2.09820241     0.00000000     0.00000000

 Orbital energies:

         1.1          2.1          3.1          4.1          5.1          6.1          7.1          8.1          9.1         10.1
    -20.645711   -20.569623   -11.454666    -1.523367    -1.355050    -0.793793    -0.707286    -0.587019     0.027863     0.056901

         1.2          2.2          3.2          4.2          5.2          6.2          7.2
    -20.645757    -1.470312    -0.736072    -0.537105    -0.512498     0.084460     0.149193

         1.3          2.3          3.3          4.3
     -0.719491    -0.707525     0.046181     0.081902

         1.4          2.4          3.4
     -0.537228     0.168829     0.264224


 **********************************************************************************************************************************
 DATASETS  * FILE   NREC   LENGTH (MB)   RECORD NAMES
              1      18        3.25       500      610      700      900      950      970     1000      129      960     1100   
                                          VAR    BASINP    GEOM    SYMINP    ZMAT    AOBASIS   BASIS     P2S    ABASIS      S 
                                         1400     1410     1200     1210     1080     1600     1650     1700   
                                           T        V       H0       H01     AOSYM     SMH    MOLCAS    OPER   

              2       3        0.67       700     1000     2100   
                                         GEOM     BASIS     RHF  

 PROGRAMS   *        TOTAL        HF       INT
 CPU TIMES  *         5.99      1.30      4.62
 REAL TIME  *         6.67 SEC
 DISK USED  *       906.40 MB      
 SF USED    *         0.06 MB      
 GA USED    *         0.00 MB       (max)       0.00 MB       (current)
 **********************************************************************************************************************************


1PROGRAM * CCSD (Closed-shell coupled cluster)     Authors: C. Hampel, H.-J. Werner, 1991, M. Deegan, P.J. Knowles, 1992

                                  CCSD-F12 implementation by  H.-J. Werner, 2007

                   Density fitting integral evaluation by F.R. Manby, 2003,2007, G. Knizia, 2010

 Basis set CC-PVTZ/JKFIT generated.      Number of basis functions:   376 
 Basis set AUG-CC-PVTZ/MP2FIT generated. Number of basis functions:   516 

 Convergence thresholds:  THRVAR = 1.00D-08  THRDEN = 1.00D-06

 CCSD(T)     terms to be evaluated (factor= 1.000)


 Number of core orbitals:           4 (   3   1   0   0 )
 Number of closed-shell orbitals:  12 (   5   4   2   1 )
 Number of external orbitals:     214 (  76  54  52  32 )

 Molecular orbitals read from record     2100.2  Type=RHF/CANONICAL (state 1.1)

 MP2-F12 correlation treatment (H.-J. Werner, 2006)
 --------------------------------------------------

 Using MP2-F12 with ansatz 3C(FIX)

 Using projected zeroth-order Hamiltonian (+Z)

 FOCKRIB=T FOCKRIC=T FOCKRIP=T CABSP=T CABSA=T CABSK=T CABSF=T GBC=F EBC=F DMAT=T NOFIK=T NOPAO=1 SOLVE=-1  USEPAO=0
 EXCH_A= T EXCH_B= F EXCH_C= F EXCH_P= F
 
 Geminal basis:    OPTFULL  GEM_TYPE=SLATER  BETA=1.0  NGEM=6

 Optimizing Gaussian exponents for each gem_beta

 Geminal optimization for beta= 1.0000
 Weight function:   m=0, omega= 1.4646

 Augmented Hessian optimization of geminal fit. Trust ratio= 0.40000
 Convergence reached after   2 iterations. Final gradient= 8.24D-16, Step= 4.32D-06, Delta= 1.28D-09
 
 Alpha:                 0.19532     0.81920     2.85917     9.50073    35.69989   197.79328
 Coeff:                 0.27070     0.30552     0.18297     0.10986     0.06810     0.04224
 

 Symmetry turned off. Reference energy:       -263.769917410741

 All pairs explicitly correlated. Number of r12-pairs:           78
 
 AO(A)-basis ORBITAL           loaded. Number of functions:     230
 RI(R)-basis CC-PVTZ/JKFIT     loaded. Number of functions:     376
 DF-basis CC-PVTZ/JKFIT        loaded. Number of functions:     376

 Screening thresholds:   THRAO=  1.00D-10  THRMO=  1.00D-09  THRPROD=  1.00D-09
                         THRSW=  1.00D-05  THROV=  1.00D-12  THRF12=   1.00D-08

 CPU time for Fock operators                      0.89 sec
 
 Construction of ABS:
 Smallest eigenvalue of S          2.57E-04  (threshold= 1.00E-08)
 Ratio eigmin/eigmax               1.83E-06  (threshold= 1.00E-09)
 Smallest eigenvalue of S kept     2.57E-04  (threshold= 2.57E-04, 0 functions deleted, 376 kept)
 
 Construction of CABS:
 Smallest eigenvalue of S          2.30E-08  (threshold= 1.00E-08)
 Ratio eigmin/eigmax               2.30E-08  (threshold= 1.00E-09)
 Smallest eigenvalue of S kept     2.30E-08  (threshold= 2.30E-08, 0 functions deleted, 376 kept)
 
 CPU time for CABS singles                        0.15 sec

 CABS-singles contribution of  -0.01592096 patched into reference energy.
 New reference energy        -263.78583837
 
 AO(A)-basis ORBITAL           loaded. Number of functions:     230
 RI(R)-basis CC-PVTZ/JKFIT     loaded. Number of functions:     376
 DF-basis AUG-CC-PVTZ/MP2FIT   loaded. Number of functions:     516

 Screening thresholds:   THRAO=  1.00D-10  THRMO=  1.00D-09  THRPROD=  1.00D-09
                         THRSW=  1.00D-05  THROV=  1.00D-12  THRF12=   1.00D-08

 CPU time for 3-index integral evaluation         2.25 sec
 CPU time for first  half transformation          0.23 sec (12724.7 MFLOP/sec)
 CPU time for second half transformation          0.02 sec ( 5507.8 MFLOP/sec)
 CPU time for sorting                             0.12 sec
 CPU time for fitting                             0.05 sec (27861.0 MFLOP/sec)
 CPU time for tilde quantities                    0.05 sec (36977.6 MFLOP/sec)
 CPU time for assembly                            0.82 sec (29722.1 MFLOP/sec)
 CPU time for tranop_f12                          0.85 sec (36286.0 MFLOP/sec)
 CPU time for f12 integrals (total)               6.43 sec
 F12-matrices built in  3 passes.
 F12-matrices built in  3 passes.
 F12-matrices built in  3 passes.
 F12-matrices built in  3 passes.
 FC-matrix built in  3 passes.
 CPU time for f12 matrices (total)                0.49 sec

 Diagonal F12 approximation with fixed coefficients:  TSING= 0.500,  TTRIP= 0.250 (scaled by -1/beta)

 DF-MP2-F12 energy corrections:
 ------------------------------
 Approx.                                    Singlet             Triplet             Total
 DF-MP2-F12/3*C(DX,FIX)                -0.097440313642     -0.016932092820     -0.114372406462
 DF-MP2-F12/3*C(FIX)                   -0.079857977100     -0.013394402653     -0.093252379753
 DF-MP2-F12/3C(FIX)                    -0.080219248865     -0.013417972983     -0.093637221849

 DF-MP2-F12 correlation energies:
 --------------------------------
 Approx.                                    Singlet             Triplet             Ecorr            Total Energy
 DF-MP2                                -0.537715617423     -0.343093259555     -0.880808876978   -264.666647245507
 DF-MP2-F12/3*C(DX,FIX)                -0.635155931065     -0.360025352376     -0.995181283440   -264.781019651969
 DF-MP2-F12/3*C(FIX)                   -0.617573594523     -0.356487662209     -0.974061256731   -264.759899625260
 DF-MP2-F12/3C(FIX)                    -0.617934866288     -0.356511232539     -0.974446098827   -264.760284467355

 SCS-DF-MP2 energies (F_SING= 1.20000  F_TRIP= 0.62222  F_PARALLEL= 0.33333):
 ----------------------------------------------------------------------------
 SCS-DF-MP2                            -0.858738991297   -264.644577359826
 SCS-DF-MP2-F12/3*C(DX,FIX)            -0.986202892089   -264.772041260618
 SCS-DF-MP2-F12/3*C(FIX)               -0.962902858802   -264.748741227330
 SCS-DF-MP2-F12/3C(FIX)                -0.963351050903   -264.749189419432

 Symmetry restored.
 Symmetry transformation completed.

 Number of N-1 electron functions:              12
 Number of N-2 electron functions:              78
 Number of singly external CSFs:               732
 Number of doubly external CSFs:            836016
 Total number of CSFs:                      836749

 Pair and operator lists are different

 Length of J-op  integral file:             462.26 MB
 Length of K-op  integral file:             502.03 MB
 Length of 3-ext integral record:             0.00 MB

 Memory could be reduced to 38.69 Mwords without degradation in triples

 Integral transformation finished. Total CPU:   1.38 sec, npass=  1  Memory used:   6.07 MW

 Reference energy:                   -263.78583837

 Adding F12 terms to K(Cij), methodcc=6,  factor=1.0

 ITER.      SQ.NORM     CORR.ENERGY   TOTAL ENERGY   ENERGY CHANGE        DEN1      VAR(S)    VAR(P)  DIIS     TIME
   1      1.20213463    -0.86276649  -264.64860486     0.01805861     0.04667745  0.72D-02  0.56D-02  1  1    10.61
   2      1.21644395    -0.85854598  -264.64438435     0.00422051    -0.02014591  0.87D-04  0.59D-03  2  2    11.54
   3      1.22180670    -0.85864356  -264.64448193    -0.00009758    -0.00236507  0.13D-03  0.32D-04  3  3    12.47
   4      1.22461005    -0.85851590  -264.64435427     0.00012766    -0.00141169  0.76D-05  0.41D-05  4  4    13.40
   5      1.22564047    -0.85847826  -264.64431663     0.00003764    -0.00036634  0.56D-06  0.29D-06  5  5    14.33
   6      1.22580272    -0.85845139  -264.64428975     0.00002687    -0.00000806  0.40D-07  0.24D-07  6  6    15.27
   7      1.22583210    -0.85844897  -264.64428733     0.00000242    -0.00000622  0.25D-08  0.40D-08  6  4    16.22
   8      1.22583241    -0.85844848  -264.64428684     0.00000049     0.00000194  0.39D-09  0.27D-09  6  1    17.20
   9      1.22583302    -0.85844854  -264.64428691    -0.00000007     0.00000056  0.26D-10  0.21D-10  6  2    18.20

 Norm of t1 vector:      0.10598130      S-energy:    -0.00000003      T1 diagnostic:  0.01529708
                                                                       D1 diagnostic:  0.04499332

 Adding energy correction from Wij-K(Fij), methodcc=6  factor=1.0
 
  CCSD correlation energy              -0.858448541899
  MP2-F12 correction (uncoupled)       -0.092480787917
  C*T doubles correction               -0.001474885541
  f12b correction                       0.015406209535


 Total CPU time for triples:     25.39 sec


 RESULTS
 =======

  Reference energy                   -263.769917410741
  F12 singles correction               -0.015920957788

 F12 singles corrections added to reference energy

  New reference energy               -263.785838368529

  F12a singlet correction              -0.080419192720
  F12a triplet correction              -0.013536480738
  F12a total correction                -0.093955673458

 F12a corrections for ansatz F12/3C(FIX) added to CCSD energy
 
  CCSD-F12a singlet pair energy        -0.641870587440
  CCSD-F12a triplet pair energy        -0.310533599867
  CCSD-F12a correlation energy         -0.952404215356

  Triples (T) contribution             -0.037642677923
  Total correlation energy             -0.990046893279

  CCSD-F12a total energy             -264.738242583885
  CCSD[T]-F12a energy                -264.778427561536
  CCSD-T-F12a energy                 -264.774948522348
 !CCSD(T)-F12a total energy          -264.775885261808

 F12b corrections for ansatz F12/3C(FIX) added to CCSD(T)-F12a energy

  CCSD-F12b singlet pair energy        -0.627687721105
  CCSD-F12b triplet pair energy        -0.309310256666
  CCSD-F12b correlation energy         -0.936998005821

  Triples (T) contribution             -0.037642677923
  Total correlation energy             -0.974640683744

  CCSD-F12b total energy             -264.722836374350
  CCSD[T]-F12b energy                -264.763021352001
  CCSD-T-F12b energy                 -264.759542312813
 !CCSD(T)-F12b total energy          -264.760479052272

 Timing summary (sec):

 STEP                 CPU(USER)    SYS     CPU(TOT)    WALL
 Transformation          1.39      0.19      1.58      1.58
 CCSD iterations         8.46      0.59      9.05      9.06
 Triples                25.39      0.80     26.19     26.19
 MP2-F12                 8.35      1.05      9.40      9.40
 F12b energy             0.60      0.02      0.62      0.61

 Program statistics:

 Available memory in ccsd:                99998934
 Min. memory needed in ccsd:               2244783
 Max. memory used in ccsd:                 3005571
 Max. memory used in cckext:               2769663 (10 integral passes)



 **********************************************************************************************************************************
 DATASETS  * FILE   NREC   LENGTH (MB)   RECORD NAMES
              1      20      137.19       500      610      700      900      950      970     1000      129      960     1100   
                                          VAR    BASINP    GEOM    SYMINP    ZMAT    AOBASIS   BASIS     P2S    ABASIS      S 
                                         1400     1410     1200     1210     1080     1600     1650     1700      960(1)  1380   
                                           T        V       H0       H01     AOSYM     SMH    MOLCAS    OPER    ABASIS    JKOP   

              2       5        0.97       700     1000     2100     7360     7350   
                                         GEOM     BASIS     RHF    F12ABS    EF12   

 PROGRAMS   *        TOTAL   CCSD(T)        HF       INT
 CPU TIMES  *        50.23     44.24      1.30      4.62
 REAL TIME  *        53.77 SEC
 DISK USED  *         1.13 GB      
 SF USED    *         1.33 GB      
 GA USED    *         2.40 MB       (max)       0.00 MB       (current)
 **********************************************************************************************************************************

     CCSD(T)-F12        HF-SCF  
   -264.76047905   -263.76991741
 **********************************************************************************************************************************
 Variable memory released
