
 Primary working directories    : /scratch/kee
 Secondary working directories  : /scratch/kee
 Wavefunction directory         : /home/kee/wfu/
 Main file repository           : /scratch/kee/

 ARCHNAME  : Linux/x86_64
 FC        : /opt/intel/composer_xe_2015.0.090/bin/intel64/ifort
 FCVERSION : 15.0.0
 BLASLIB   : -L/opt/intel/mkl/lib/intel64 -lmkl_intel_ilp64 -lmkl_sequential -lmkl_core
 id        : emory

 Nodes     nprocs
 node22       3
 Number of processes for MPI-2 version of Molpro:   nprocs(total)=    4   nprocs(compute)=    3   nprocs(helper)=    1
 ga_uses_ma=false, calling ma_init with nominal heap.
 GA-space will be limited to   8.0 MW (determined by -G option)

 Using customized tuning parameters: mindgm=7; mindgv=32; mindgc=1; mindgr=1; noblas=0; mincuda=1000; minvec=7
 default implementation of scratch files=sf  

 ***,co2h2o
 memory,100,m
 basis avtz
 geomtype = xyz
 geometry = {
 6
       0.00000000
 O     0.01288800    1.16233300    0.00000000
 O     0.01288800   -1.16233300    0.00000000
 O     3.15363900    0.00000000    0.00000000
 H     2.57249900    0.76306800    0.00000000
 H     2.57249900   -0.76306800    0.00000000
 C     0.00363900    0.00000000    0.00000000
 }
 hf
 ccsd(t)-f12
 ---

 Variables initialized (665), CPU time= 0.00 sec
 Commands  initialized (462), CPU time= 0.01 sec, 486 directives.
 Default parameters read. Elapsed time= 0.04 sec

 Checking input...
 Passed
1


                                         ***  PROGRAM SYSTEM MOLPRO  ***
                         Copyright, University College Cardiff Consultants Limited, 2008

                                    Version 2010.1 linked 9 Dec 2014 15:06:28 


 **********************************************************************************************************************************
 LABEL *   co2h2o                                                                        
 Linux-2.6.32-504.el6.x86_64/node22(x86_64) 64 bit mpp version                           DATE: 15-Dec-16          TIME: 00:18:03  
 **********************************************************************************************************************************

 Patch level:      19
 **********************************************************************************************************************************

 Variable memory set to  100000000 words,  buffer space   230000 words

 SETTING BASIS          =    AVTZ
 SETTING GEOMTYPE       =    XYZ

Geometry recognized as XYZ



 Recomputing integrals since basis changed


 Using spherical harmonics

 Library entry O      S aug-cc-pVTZ          selected for orbital group  1
 Library entry O      P aug-cc-pVTZ          selected for orbital group  1
 Library entry O      D aug-cc-pVTZ          selected for orbital group  1
 Library entry O      F aug-cc-pVTZ          selected for orbital group  1
 Library entry H      S aug-cc-pVTZ          selected for orbital group  2
 Library entry H      P aug-cc-pVTZ          selected for orbital group  2
 Library entry H      D aug-cc-pVTZ          selected for orbital group  2
 Library entry C      S aug-cc-pVTZ          selected for orbital group  3
 Library entry C      P aug-cc-pVTZ          selected for orbital group  3
 Library entry C      D aug-cc-pVTZ          selected for orbital group  3
 Library entry C      F aug-cc-pVTZ          selected for orbital group  3

1PROGRAM * SEWARD (Integral evaluation for generally contracted gaussian basis sets)     Author: Roland Lindh, 1990

 Geometry written to block  1 of record 700


 Point group  C2v 



 ATOMIC COORDINATES

 NR  ATOM    CHARGE       X              Y              Z

   1  O       8.00    0.024354790    2.196491044    0.000000000
   2  O       8.00    0.024354790   -2.196491044    0.000000000
   3  O       8.00    5.959514027    0.000000000    0.000000000
   4  H       1.00    4.861318583    1.441989540    0.000000000
   5  H       1.00    4.861318583   -1.441989540    0.000000000
   6  C       6.00    0.006876713    0.000000000    0.000000000

 Bond lengths in Bohr (Angstrom)

 1-6  2.196560581  2-6  2.196560581  3-4  1.812558155  3-5  1.812558155
     (1.162369798)     (1.162369798)     (0.959164466)     (0.959164466)

 Bond angles

  1-6-2  179.08818302   4-3-5  105.41539946

 NUCLEAR CHARGE:                   32
 NUMBER OF PRIMITIVE AOS:         322
 NUMBER OF SYMMETRY AOS:          282
 NUMBER OF CONTRACTIONS:          230   (  84A1  +  68B1  +  45B2  +  33A2  )
 NUMBER OF CORE ORBITALS:           4   (   3A1  +   1B1  +   0B2  +   0A2  )
 NUMBER OF VALENCE ORBITALS:       18   (   8A1  +   6B1  +   3B2  +   1A2  )


 NUCLEAR REPULSION ENERGY  104.01827610


 Eigenvalues of metric

         1 0.270E-03 0.298E-03 0.869E-03 0.109E-02 0.163E-02 0.224E-02 0.312E-02 0.390E-02
         2 0.275E-03 0.345E-03 0.789E-03 0.114E-02 0.161E-02 0.230E-02 0.312E-02 0.464E-02
         3 0.310E-02 0.476E-02 0.132E-01 0.253E-01 0.312E-01 0.346E-01 0.569E-01 0.615E-01
         4 0.347E-02 0.115E-01 0.291E-01 0.328E-01 0.531E-01 0.644E-01 0.935E-01 0.140E+00


 Contracted 2-electron integrals neglected if value below      1.0D-11
 AO integral compression algorithm  1   Integral accuracy      1.0D-11

     421.003 MB (compressed) written to integral file ( 46.9%)

     Node minimum: 135.791 MB, node maximum: 147.587 MB


 NUMBER OF SORTED TWO-ELECTRON INTEGRALS:   30156294.     BUFFER LENGTH:  32768
 NUMBER OF SEGMENTS:   2  SEGMENT LENGTH:   15999663      RECORD LENGTH: 524288

 Memory used in sort:      16.56 MW

 SORT1 READ   112167128. AND WROTE    28351575. INTEGRALS IN     82 RECORDS. CPU TIME:     2.39 SEC, REAL TIME:     2.75 SEC
 SORT2 READ    85294502. AND WROTE    90461370. INTEGRALS IN   1554 RECORDS. CPU TIME:     0.63 SEC, REAL TIME:     0.89 SEC

 Node minimum:    30151286.  Node maximum:    30156294. integrals

 OPERATOR DM      FOR CENTER  0  COORDINATES:    0.000000    0.000000    0.000000


 **********************************************************************************************************************************
 DATASETS  * FILE   NREC   LENGTH (MB)   RECORD NAMES
              1      18        3.24       500      610      700      900      950      970     1000      129      960     1100   
                                          VAR    BASINP    GEOM    SYMINP    ZMAT    AOBASIS   BASIS     P2S    ABASIS      S 
                                         1400     1410     1200     1210     1080     1600     1650     1700   
                                           T        V       H0       H01     AOSYM     SMH    MOLCAS    OPER   

 PROGRAMS   *        TOTAL       INT
 CPU TIMES  *         5.66      5.59
 REAL TIME  *         6.45 SEC
 DISK USED  *         1.43 GB      
 GA USED    *         0.00 MB       (max)       0.00 MB       (current)
 **********************************************************************************************************************************

1PROGRAM * RHF-SCF (CLOSED SHELL)       Authors: W. Meyer, H.-J. Werner


 NUMBER OF ELECTRONS:      16+   16-
 CONVERGENCE THRESHOLDS:    1.00E-05 (Density)    1.00E-07 (Energy)
 MAX. NUMBER OF ITERATIONS:       60
 INTERPOLATION TYPE:            DIIS
 INTERPOLATION STEPS:              2 (START)      1 (STEP)
 LEVEL SHIFTS:                  0.00 (CLOSED)  0.00 (OPEN) 



 Orbital guess generated from atomic densities. Full valence occupancy:   11   7   3   1

 Molecular orbital dump at record        2100.2

 Initial alpha occupancy:   8   5   2   1
 Initial beta  occupancy:   8   5   2   1
 Wave function symmetry:    1

 ITERATION    DDIFF          GRAD             ENERGY        2-EL.EN.            DIPOLE MOMENTS         DIIS
    1      0.000D+00      0.000D+00      -263.65529436    401.846211   -1.19459    0.00000    0.00000    0
    2      0.000D+00      0.890D-02      -263.72166465    398.307360   -0.73265    0.00000    0.00000    1
    3      0.142D-01      0.606D-02      -263.76644835    400.577827   -0.84432    0.00000    0.00000    2
    4      0.588D-02      0.575D-03      -263.76696518    400.342591   -0.84362    0.00000    0.00000    3
    5      0.712D-03      0.167D-03      -263.76702485    400.358214   -0.83791    0.00000    0.00000    4
    6      0.260D-03      0.650D-04      -263.76703183    400.371614   -0.83830    0.00000    0.00000    5
    7      0.847D-04      0.166D-04      -263.76703258    400.363858   -0.83774    0.00000    0.00000    6
    8      0.287D-04      0.354D-05      -263.76703263    400.365119   -0.83772    0.00000    0.00000    7
    9      0.773D-05      0.114D-05      -263.76703263    400.364982   -0.83769    0.00000    0.00000    0

 Final occupancy:   8   5   2   1

 !RHF STATE 1.1 Energy               -263.767032632632
 Nuclear energy                       104.01827610
 One-electron energy                 -567.96779968
 Two-electron energy                  200.18249094
 Virial quotient                       -1.00176458
 !RHF STATE 1.1 Dipole moment          -0.83768746     0.00000000     0.00000000
 Dipole moment /Debye                  -2.12904969     0.00000000     0.00000000

 Orbital energies:

         1.1          2.1          3.1          4.1          5.1          6.1          7.1          8.1          9.1         10.1
    -20.671371   -20.571954   -11.480265    -1.549479    -1.358251    -0.819125    -0.736280    -0.587197     0.032384     0.059801

         1.2          2.2          3.2          4.2          5.2          6.2          7.2
    -20.671417    -1.496296    -0.761347    -0.724421    -0.563544     0.053256     0.090412

         1.3          2.3          3.3          4.3
     -0.732810    -0.515167     0.069296     0.165591

         1.4          2.4          3.4
     -0.562485     0.155486     0.289621


 **********************************************************************************************************************************
 DATASETS  * FILE   NREC   LENGTH (MB)   RECORD NAMES
              1      18        3.25       500      610      700      900      950      970     1000      129      960     1100   
                                          VAR    BASINP    GEOM    SYMINP    ZMAT    AOBASIS   BASIS     P2S    ABASIS      S 
                                         1400     1410     1200     1210     1080     1600     1650     1700   
                                           T        V       H0       H01     AOSYM     SMH    MOLCAS    OPER   

              2       3        0.68       700     1000     2100   
                                         GEOM     BASIS     RHF  

 PROGRAMS   *        TOTAL        HF       INT
 CPU TIMES  *         6.91      1.25      5.59
 REAL TIME  *         7.87 SEC
 DISK USED  *         1.45 GB      
 SF USED    *         0.06 MB      
 GA USED    *         0.00 MB       (max)       0.00 MB       (current)
 **********************************************************************************************************************************


1PROGRAM * CCSD (Closed-shell coupled cluster)     Authors: C. Hampel, H.-J. Werner, 1991, M. Deegan, P.J. Knowles, 1992

                                  CCSD-F12 implementation by  H.-J. Werner, 2007

                   Density fitting integral evaluation by F.R. Manby, 2003,2007, G. Knizia, 2010

 Basis set CC-PVTZ/JKFIT generated.      Number of basis functions:   376 
 Basis set AUG-CC-PVTZ/MP2FIT generated. Number of basis functions:   516 

 Convergence thresholds:  THRVAR = 1.00D-08  THRDEN = 1.00D-06

 CCSD(T)     terms to be evaluated (factor= 1.000)


 Number of core orbitals:           4 (   3   1   0   0 )
 Number of closed-shell orbitals:  12 (   5   4   2   1 )
 Number of external orbitals:     214 (  76  63  43  32 )

 Molecular orbitals read from record     2100.2  Type=RHF/CANONICAL (state 1.1)

 MP2-F12 correlation treatment (H.-J. Werner, 2006)
 --------------------------------------------------

 Using MP2-F12 with ansatz 3C(FIX)

 Using projected zeroth-order Hamiltonian (+Z)

 FOCKRIB=T FOCKRIC=T FOCKRIP=T CABSP=T CABSA=T CABSK=T CABSF=T GBC=F EBC=F DMAT=T NOFIK=T NOPAO=1 SOLVE=-1  USEPAO=0
 EXCH_A= T EXCH_B= F EXCH_C= F EXCH_P= F
 
 Geminal basis:    OPTFULL  GEM_TYPE=SLATER  BETA=1.0  NGEM=6

 Optimizing Gaussian exponents for each gem_beta

 Geminal optimization for beta= 1.0000
 Weight function:   m=0, omega= 1.4646

 Augmented Hessian optimization of geminal fit. Trust ratio= 0.40000
 Convergence reached after   2 iterations. Final gradient= 8.24D-16, Step= 4.32D-06, Delta= 1.28D-09
 
 Alpha:                 0.19532     0.81920     2.85917     9.50073    35.69989   197.79328
 Coeff:                 0.27070     0.30552     0.18297     0.10986     0.06810     0.04224
 

 Symmetry turned off. Reference energy:       -263.767032632632

 All pairs explicitly correlated. Number of r12-pairs:           78
 
 AO(A)-basis ORBITAL           loaded. Number of functions:     230
 RI(R)-basis CC-PVTZ/JKFIT     loaded. Number of functions:     376
 DF-basis CC-PVTZ/JKFIT        loaded. Number of functions:     376

 Screening thresholds:   THRAO=  1.00D-10  THRMO=  1.00D-09  THRPROD=  1.00D-09
                         THRSW=  1.00D-05  THROV=  1.00D-12  THRF12=   1.00D-08

 CPU time for Fock operators                      0.95 sec
 
 Construction of ABS:
 Smallest eigenvalue of S          2.32E-04  (threshold= 1.00E-08)
 Ratio eigmin/eigmax               1.65E-06  (threshold= 1.00E-09)
 Smallest eigenvalue of S kept     2.32E-04  (threshold= 2.32E-04, 0 functions deleted, 376 kept)
 
 Construction of CABS:
 Smallest eigenvalue of S          2.23E-08  (threshold= 1.00E-08)
 Ratio eigmin/eigmax               2.23E-08  (threshold= 1.00E-09)
 Smallest eigenvalue of S kept     2.23E-08  (threshold= 2.23E-08, 0 functions deleted, 376 kept)
 
 CPU time for CABS singles                        0.16 sec

 CABS-singles contribution of  -0.01590001 patched into reference energy.
 New reference energy        -263.78293264
 
 AO(A)-basis ORBITAL           loaded. Number of functions:     230
 RI(R)-basis CC-PVTZ/JKFIT     loaded. Number of functions:     376
 DF-basis AUG-CC-PVTZ/MP2FIT   loaded. Number of functions:     516

 Screening thresholds:   THRAO=  1.00D-10  THRMO=  1.00D-09  THRPROD=  1.00D-09
                         THRSW=  1.00D-05  THROV=  1.00D-12  THRF12=   1.00D-08

 CPU time for 3-index integral evaluation         2.96 sec
 CPU time for first  half transformation          0.24 sec (11097.1 MFLOP/sec)
 CPU time for second half transformation          0.02 sec ( 4853.2 MFLOP/sec)
 CPU time for sorting                             0.13 sec
 CPU time for fitting                             0.07 sec (19900.7 MFLOP/sec)
 CPU time for tilde quantities                    0.05 sec (36977.6 MFLOP/sec)
 CPU time for assembly                            0.77 sec (29770.6 MFLOP/sec)
 CPU time for tranop_f12                          0.87 sec (34102.9 MFLOP/sec)
 CPU time for f12 integrals (total)               7.15 sec
 F12-matrices built in  3 passes.
 F12-matrices built in  3 passes.
 F12-matrices built in  3 passes.
 F12-matrices built in  3 passes.
 FC-matrix built in  3 passes.
 CPU time for f12 matrices (total)                0.46 sec

 Diagonal F12 approximation with fixed coefficients:  TSING= 0.500,  TTRIP= 0.250 (scaled by -1/beta)

 DF-MP2-F12 energy corrections:
 ------------------------------
 Approx.                                    Singlet             Triplet             Total
 DF-MP2-F12/3*C(DX,FIX)                -0.097191399436     -0.016947253583     -0.114138653019
 DF-MP2-F12/3*C(FIX)                   -0.079617090915     -0.013426057404     -0.093043148319
 DF-MP2-F12/3C(FIX)                    -0.080001364051     -0.013462851797     -0.093464215848

 DF-MP2-F12 correlation energies:
 --------------------------------
 Approx.                                    Singlet             Triplet             Ecorr            Total Energy
 DF-MP2                                -0.538758295487     -0.345194142603     -0.883952438090   -264.666885078960
 DF-MP2-F12/3*C(DX,FIX)                -0.635949694923     -0.362141396187     -0.998091091109   -264.781023731979
 DF-MP2-F12/3*C(FIX)                   -0.618375386401     -0.358620200007     -0.976995586409   -264.759928227278
 DF-MP2-F12/3C(FIX)                    -0.618759659538     -0.358656994401     -0.977416653939   -264.760349294808

 SCS-DF-MP2 energies (F_SING= 1.20000  F_TRIP= 0.62222  F_PARALLEL= 0.33333):
 ----------------------------------------------------------------------------
 SCS-DF-MP2                            -0.861297421093   -264.644230061963
 SCS-DF-MP2-F12/3*C(DX,FIX)            -0.988472058201   -264.771404699071
 SCS-DF-MP2-F12/3*C(FIX)               -0.965191921464   -264.748124562334
 SCS-DF-MP2-F12/3C(FIX)                -0.965675943517   -264.748608584387

 Symmetry restored.
 Symmetry transformation completed.

 Number of N-1 electron functions:              12
 Number of N-2 electron functions:              78
 Number of singly external CSFs:               750
 Number of doubly external CSFs:            844332
 Total number of CSFs:                      845083

 Pair and operator lists are different

 Length of J-op  integral file:             462.28 MB
 Length of K-op  integral file:             502.25 MB
 Length of 3-ext integral record:             0.00 MB

 Memory could be reduced to 38.71 Mwords without degradation in triples

 Integral transformation finished. Total CPU:   1.38 sec, npass=  1  Memory used:   7.09 MW

 Reference energy:                   -263.78293264

 Adding F12 terms to K(Cij), methodcc=6,  factor=1.0

 ITER.      SQ.NORM     CORR.ENERGY   TOTAL ENERGY   ENERGY CHANGE        DEN1      VAR(S)    VAR(P)  DIIS     TIME
   1      1.20289255    -0.86559905  -264.64853169     0.01836522     0.04724536  0.73D-02  0.56D-02  1  1    11.37
   2      1.21734246    -0.86132216  -264.64425480     0.00427689    -0.02033367  0.88D-04  0.59D-03  2  2    12.32
   3      1.22275145    -0.86141811  -264.64435075    -0.00009595    -0.00235762  0.13D-03  0.32D-04  3  3    13.25
   4      1.22558900    -0.86128223  -264.64421487     0.00013588    -0.00142194  0.78D-05  0.41D-05  4  4    14.20
   5      1.22663225    -0.86124315  -264.64417579     0.00003907    -0.00036924  0.59D-06  0.29D-06  5  5    15.16
   6      1.22679649    -0.86121630  -264.64414894     0.00002685    -0.00000790  0.45D-07  0.25D-07  6  6    16.13
   7      1.22682791    -0.86121340  -264.64414604     0.00000290    -0.00000671  0.36D-08  0.43D-08  6  2    17.09
   8      1.22682845    -0.86121318  -264.64414582     0.00000023     0.00000196  0.46D-09  0.40D-09  6  1    18.06
   9      1.22682876    -0.86121327  -264.64414591    -0.00000009     0.00000083  0.55D-10  0.40D-10  6  4    19.03

 Norm of t1 vector:      0.10698339      S-energy:    -0.00000000      T1 diagnostic:  0.01544172
                                                                       D1 diagnostic:  0.04512400

 Adding energy correction from Wij-K(Fij), methodcc=6  factor=1.0
 
  CCSD correlation energy              -0.861213267691
  MP2-F12 correction (uncoupled)       -0.092282663285
  C*T doubles correction               -0.001481457534
  f12b correction                       0.015402505656


 Total CPU time for triples:     25.26 sec


 RESULTS
 =======

  Reference energy                   -263.767032632632
  F12 singles correction               -0.015900008238

 F12 singles corrections added to reference energy

  New reference energy               -263.782932640870

  F12a singlet correction              -0.080191228561
  F12a triplet correction              -0.013572892258
  F12a total correction                -0.093764120819

 F12a corrections for ansatz F12/3C(FIX) added to CCSD energy
 
  CCSD-F12a singlet pair energy        -0.642392609967
  CCSD-F12a triplet pair energy        -0.312584775716
  CCSD-F12a correlation energy         -0.954977388510

  Triples (T) contribution             -0.038192746925
  Total correlation energy             -0.993170135435

  CCSD-F12a total energy             -264.737910029380
  CCSD[T]-F12a energy                -264.778693713717
  CCSD-T-F12a energy                 -264.775150804978
 !CCSD(T)-F12a total energy          -264.776102776305

 F12b corrections for ansatz F12/3C(FIX) added to CCSD(T)-F12a energy

  CCSD-F12b singlet pair energy        -0.628218286188
  CCSD-F12b triplet pair energy        -0.311356593839
  CCSD-F12b correlation energy         -0.939574882854

  Triples (T) contribution             -0.038192746925
  Total correlation energy             -0.977767629779

  CCSD-F12b total energy             -264.722507523724
  CCSD[T]-F12b energy                -264.763291208061
  CCSD-T-F12b energy                 -264.759748299322
 !CCSD(T)-F12b total energy          -264.760700270649

 Timing summary (sec):

 STEP                 CPU(USER)    SYS     CPU(TOT)    WALL
 Transformation          1.39      0.24      1.63      1.62
 CCSD iterations         8.55      0.72      9.27      9.27
 Triples                25.26      0.73     25.99     25.98
 MP2-F12                 9.10      1.20     10.30     10.31
 F12b energy             0.58      0.02      0.60      0.61

 Program statistics:

 Available memory in ccsd:                99998934
 Min. memory needed in ccsd:               2252999
 Max. memory used in ccsd:                 3011949
 Max. memory used in cckext:               2777209 (10 integral passes)



 **********************************************************************************************************************************
 DATASETS  * FILE   NREC   LENGTH (MB)   RECORD NAMES
              1      20      137.17       500      610      700      900      950      970     1000      129      960     1100   
                                          VAR    BASINP    GEOM    SYMINP    ZMAT    AOBASIS   BASIS     P2S    ABASIS      S 
                                         1400     1410     1200     1210     1080     1600     1650     1700      960(1)  1380   
                                           T        V       H0       H01     AOSYM     SMH    MOLCAS    OPER    ABASIS    JKOP   

              2       5        0.98       700     1000     2100     7360     7350   
                                         GEOM     BASIS     RHF    F12ABS    EF12   

 PROGRAMS   *        TOTAL   CCSD(T)        HF       INT
 CPU TIMES  *        51.81     44.90      1.25      5.59
 REAL TIME  *        55.91 SEC
 DISK USED  *         1.67 GB      
 SF USED    *         1.34 GB      
 GA USED    *         2.40 MB       (max)       0.00 MB       (current)
 **********************************************************************************************************************************

     CCSD(T)-F12        HF-SCF  
   -264.76070027   -263.76703263
 **********************************************************************************************************************************
 Variable memory released
