
 Primary working directories    : /scratch/kee
 Secondary working directories  : /scratch/kee
 Wavefunction directory         : /home/kee/wfu/
 Main file repository           : /scratch/kee/

 ARCHNAME  : Linux/x86_64
 FC        : /opt/intel/composer_xe_2015.0.090/bin/intel64/ifort
 FCVERSION : 15.0.0
 BLASLIB   : -L/opt/intel/mkl/lib/intel64 -lmkl_intel_ilp64 -lmkl_sequential -lmkl_core
 id        : emory

 Nodes     nprocs
 node22       3
 Number of processes for MPI-2 version of Molpro:   nprocs(total)=    4   nprocs(compute)=    3   nprocs(helper)=    1
 ga_uses_ma=false, calling ma_init with nominal heap.
 GA-space will be limited to   8.0 MW (determined by -G option)

 Using customized tuning parameters: mindgm=7; mindgv=32; mindgc=1; mindgr=1; noblas=0; mincuda=1000; minvec=7
 default implementation of scratch files=sf  

 ***,co2h2o
 memory,100,m
 basis avtz
 geomtype = xyz
 geometry = {
 6
       0.00000000
 O     0.01288800    1.16233300    0.00000000
 O     0.01288800   -1.16233300    0.00000000
 O     3.10363900    0.00000000    0.00000000
 H     2.52249900    0.76306800    0.00000000
 H     2.52249900   -0.76306800    0.00000000
 C     0.00363900    0.00000000    0.00000000
 }
 hf
 ccsd(t)-f12
 ---

 Variables initialized (665), CPU time= 0.01 sec
 Commands  initialized (462), CPU time= 0.00 sec, 486 directives.
 Default parameters read. Elapsed time= 0.03 sec

 Checking input...
 Passed
1


                                         ***  PROGRAM SYSTEM MOLPRO  ***
                         Copyright, University College Cardiff Consultants Limited, 2008

                                    Version 2010.1 linked 9 Dec 2014 15:06:28 


 **********************************************************************************************************************************
 LABEL *   co2h2o                                                                        
 Linux-2.6.32-504.el6.x86_64/node22(x86_64) 64 bit mpp version                           DATE: 15-Dec-16          TIME: 00:17:02  
 **********************************************************************************************************************************

 Patch level:      19
 **********************************************************************************************************************************

 Variable memory set to  100000000 words,  buffer space   230000 words

 SETTING BASIS          =    AVTZ
 SETTING GEOMTYPE       =    XYZ

Geometry recognized as XYZ



 Recomputing integrals since basis changed


 Using spherical harmonics

 Library entry O      S aug-cc-pVTZ          selected for orbital group  1
 Library entry O      P aug-cc-pVTZ          selected for orbital group  1
 Library entry O      D aug-cc-pVTZ          selected for orbital group  1
 Library entry O      F aug-cc-pVTZ          selected for orbital group  1
 Library entry H      S aug-cc-pVTZ          selected for orbital group  2
 Library entry H      P aug-cc-pVTZ          selected for orbital group  2
 Library entry H      D aug-cc-pVTZ          selected for orbital group  2
 Library entry C      S aug-cc-pVTZ          selected for orbital group  3
 Library entry C      P aug-cc-pVTZ          selected for orbital group  3
 Library entry C      D aug-cc-pVTZ          selected for orbital group  3
 Library entry C      F aug-cc-pVTZ          selected for orbital group  3

1PROGRAM * SEWARD (Integral evaluation for generally contracted gaussian basis sets)     Author: Roland Lindh, 1990

 Geometry written to block  1 of record 700


 Point group  C2v 



 ATOMIC COORDINATES

 NR  ATOM    CHARGE       X              Y              Z

   1  O       8.00    0.024354790    2.196491044    0.000000000
   2  O       8.00    0.024354790   -2.196491044    0.000000000
   3  O       8.00    5.865027721    0.000000000    0.000000000
   4  H       1.00    4.766832277    1.441989540    0.000000000
   5  H       1.00    4.766832277   -1.441989540    0.000000000
   6  C       6.00    0.006876713    0.000000000    0.000000000

 Bond lengths in Bohr (Angstrom)

 1-6  2.196560581  2-6  2.196560581  3-4  1.812558155  3-5  1.812558155
     (1.162369798)     (1.162369798)     (0.959164466)     (0.959164466)

 Bond angles

  1-6-2  179.08818302   4-3-5  105.41539946

 NUCLEAR CHARGE:                   32
 NUMBER OF PRIMITIVE AOS:         322
 NUMBER OF SYMMETRY AOS:          282
 NUMBER OF CONTRACTIONS:          230   (  84A1  +  68B1  +  45B2  +  33A2  )
 NUMBER OF CORE ORBITALS:           4   (   3A1  +   1B1  +   0B2  +   0A2  )
 NUMBER OF VALENCE ORBITALS:       18   (   8A1  +   6B1  +   3B2  +   1A2  )


 NUCLEAR REPULSION ENERGY  104.57519228


 Eigenvalues of metric

         1 0.265E-03 0.292E-03 0.865E-03 0.106E-02 0.158E-02 0.217E-02 0.311E-02 0.386E-02
         2 0.272E-03 0.342E-03 0.784E-03 0.109E-02 0.160E-02 0.225E-02 0.305E-02 0.460E-02
         3 0.310E-02 0.472E-02 0.132E-01 0.251E-01 0.311E-01 0.346E-01 0.566E-01 0.613E-01
         4 0.347E-02 0.114E-01 0.291E-01 0.325E-01 0.529E-01 0.641E-01 0.919E-01 0.141E+00


 Contracted 2-electron integrals neglected if value below      1.0D-11
 AO integral compression algorithm  1   Integral accuracy      1.0D-11

     424.411 MB (compressed) written to integral file ( 47.3%)

     Node minimum: 136.053 MB, node maximum: 145.490 MB


 NUMBER OF SORTED TWO-ELECTRON INTEGRALS:   30156294.     BUFFER LENGTH:  32768
 NUMBER OF SEGMENTS:   2  SEGMENT LENGTH:   15999663      RECORD LENGTH: 524288

 Memory used in sort:      16.56 MW

 SORT1 READ   112167128. AND WROTE    28472669. INTEGRALS IN     83 RECORDS. CPU TIME:     2.33 SEC, REAL TIME:     2.66 SEC
 SORT2 READ    85638058. AND WROTE    90461370. INTEGRALS IN   1665 RECORDS. CPU TIME:     0.62 SEC, REAL TIME:     0.92 SEC

 Node minimum:    30151286.  Node maximum:    30156294. integrals

 OPERATOR DM      FOR CENTER  0  COORDINATES:    0.000000    0.000000    0.000000


 **********************************************************************************************************************************
 DATASETS  * FILE   NREC   LENGTH (MB)   RECORD NAMES
              1      18        3.24       500      610      700      900      950      970     1000      129      960     1100   
                                          VAR    BASINP    GEOM    SYMINP    ZMAT    AOBASIS   BASIS     P2S    ABASIS      S 
                                         1400     1410     1200     1210     1080     1600     1650     1700   
                                           T        V       H0       H01     AOSYM     SMH    MOLCAS    OPER   

 PROGRAMS   *        TOTAL       INT
 CPU TIMES  *         5.93      5.87
 REAL TIME  *         7.26 SEC
 DISK USED  *         1.44 GB      
 GA USED    *         0.00 MB       (max)       0.00 MB       (current)
 **********************************************************************************************************************************

1PROGRAM * RHF-SCF (CLOSED SHELL)       Authors: W. Meyer, H.-J. Werner


 NUMBER OF ELECTRONS:      16+   16-
 CONVERGENCE THRESHOLDS:    1.00E-05 (Density)    1.00E-07 (Energy)
 MAX. NUMBER OF ITERATIONS:       60
 INTERPOLATION TYPE:            DIIS
 INTERPOLATION STEPS:              2 (START)      1 (STEP)
 LEVEL SHIFTS:                  0.00 (CLOSED)  0.00 (OPEN) 



 Orbital guess generated from atomic densities. Full valence occupancy:   11   7   3   1

 Molecular orbital dump at record        2100.2

 Initial alpha occupancy:   8   5   2   1
 Initial beta  occupancy:   8   5   2   1
 Wave function symmetry:    1

 ITERATION    DDIFF          GRAD             ENERGY        2-EL.EN.            DIPOLE MOMENTS         DIIS
    1      0.000D+00      0.000D+00      -263.65476009    402.902587   -1.19990    0.00000    0.00000    0
    2      0.000D+00      0.890D-02      -263.72125805    399.414788   -0.73588    0.00000    0.00000    1
    3      0.142D-01      0.606D-02      -263.76604310    401.667677   -0.84763    0.00000    0.00000    2
    4      0.588D-02      0.577D-03      -263.76656298    401.431166   -0.84664    0.00000    0.00000    3
    5      0.715D-03      0.168D-03      -263.76662300    401.447278   -0.84081    0.00000    0.00000    4
    6      0.260D-03      0.651D-04      -263.76663001    401.460748   -0.84118    0.00000    0.00000    5
    7      0.849D-04      0.166D-04      -263.76663077    401.453002   -0.84060    0.00000    0.00000    6
    8      0.288D-04      0.354D-05      -263.76663081    401.454261   -0.84058    0.00000    0.00000    7
    9      0.774D-05      0.113D-05      -263.76663082    401.454125   -0.84055    0.00000    0.00000    0

 Final occupancy:   8   5   2   1

 !RHF STATE 1.1 Energy               -263.766630815916
 Nuclear energy                       104.57519228
 One-electron energy                 -569.06888544
 Two-electron energy                  200.72706235
 Virial quotient                       -1.00175123
 !RHF STATE 1.1 Dipole moment          -0.84055069     0.00000000     0.00000000
 Dipole moment /Debye                  -2.13632683     0.00000000     0.00000000

 Orbital energies:

         1.1          2.1          3.1          4.1          5.1          6.1          7.1          8.1          9.1         10.1
    -20.671818   -20.571841   -11.480774    -1.550036    -1.358393    -0.819626    -0.737207    -0.587004     0.032461     0.059984

         1.2          2.2          3.2          4.2          5.2          6.2          7.2
    -20.671863    -1.496834    -0.761862    -0.724603    -0.564078     0.053352     0.090617

         1.3          2.3          3.3          4.3
     -0.733300    -0.515174     0.069375     0.165836

         1.4          2.4          3.4
     -0.562968     0.155470     0.290721


 **********************************************************************************************************************************
 DATASETS  * FILE   NREC   LENGTH (MB)   RECORD NAMES
              1      18        3.25       500      610      700      900      950      970     1000      129      960     1100   
                                          VAR    BASINP    GEOM    SYMINP    ZMAT    AOBASIS   BASIS     P2S    ABASIS      S 
                                         1400     1410     1200     1210     1080     1600     1650     1700   
                                           T        V       H0       H01     AOSYM     SMH    MOLCAS    OPER   

              2       3        0.68       700     1000     2100   
                                         GEOM     BASIS     RHF  

 PROGRAMS   *        TOTAL        HF       INT
 CPU TIMES  *         7.20      1.27      5.87
 REAL TIME  *         8.67 SEC
 DISK USED  *         1.46 GB      
 SF USED    *         0.06 MB      
 GA USED    *         0.00 MB       (max)       0.00 MB       (current)
 **********************************************************************************************************************************


1PROGRAM * CCSD (Closed-shell coupled cluster)     Authors: C. Hampel, H.-J. Werner, 1991, M. Deegan, P.J. Knowles, 1992

                                  CCSD-F12 implementation by  H.-J. Werner, 2007

                   Density fitting integral evaluation by F.R. Manby, 2003,2007, G. Knizia, 2010

 Basis set CC-PVTZ/JKFIT generated.      Number of basis functions:   376 
 Basis set AUG-CC-PVTZ/MP2FIT generated. Number of basis functions:   516 

 Convergence thresholds:  THRVAR = 1.00D-08  THRDEN = 1.00D-06

 CCSD(T)     terms to be evaluated (factor= 1.000)


 Number of core orbitals:           4 (   3   1   0   0 )
 Number of closed-shell orbitals:  12 (   5   4   2   1 )
 Number of external orbitals:     214 (  76  63  43  32 )

 Molecular orbitals read from record     2100.2  Type=RHF/CANONICAL (state 1.1)

 MP2-F12 correlation treatment (H.-J. Werner, 2006)
 --------------------------------------------------

 Using MP2-F12 with ansatz 3C(FIX)

 Using projected zeroth-order Hamiltonian (+Z)

 FOCKRIB=T FOCKRIC=T FOCKRIP=T CABSP=T CABSA=T CABSK=T CABSF=T GBC=F EBC=F DMAT=T NOFIK=T NOPAO=1 SOLVE=-1  USEPAO=0
 EXCH_A= T EXCH_B= F EXCH_C= F EXCH_P= F
 
 Geminal basis:    OPTFULL  GEM_TYPE=SLATER  BETA=1.0  NGEM=6

 Optimizing Gaussian exponents for each gem_beta

 Geminal optimization for beta= 1.0000
 Weight function:   m=0, omega= 1.4646

 Augmented Hessian optimization of geminal fit. Trust ratio= 0.40000
 Convergence reached after   2 iterations. Final gradient= 8.24D-16, Step= 4.32D-06, Delta= 1.28D-09
 
 Alpha:                 0.19532     0.81920     2.85917     9.50073    35.69989   197.79328
 Coeff:                 0.27070     0.30552     0.18297     0.10986     0.06810     0.04224
 

 Symmetry turned off. Reference energy:       -263.766630815916

 All pairs explicitly correlated. Number of r12-pairs:           78
 
 AO(A)-basis ORBITAL           loaded. Number of functions:     230
 RI(R)-basis CC-PVTZ/JKFIT     loaded. Number of functions:     376
 DF-basis CC-PVTZ/JKFIT        loaded. Number of functions:     376

 Screening thresholds:   THRAO=  1.00D-10  THRMO=  1.00D-09  THRPROD=  1.00D-09
                         THRSW=  1.00D-05  THROV=  1.00D-12  THRF12=   1.00D-08

 CPU time for Fock operators                      0.95 sec
 
 Construction of ABS:
 Smallest eigenvalue of S          2.30E-04  (threshold= 1.00E-08)
 Ratio eigmin/eigmax               1.64E-06  (threshold= 1.00E-09)
 Smallest eigenvalue of S kept     2.30E-04  (threshold= 2.30E-04, 0 functions deleted, 376 kept)
 
 Construction of CABS:
 Smallest eigenvalue of S          2.23E-08  (threshold= 1.00E-08)
 Ratio eigmin/eigmax               2.23E-08  (threshold= 1.00E-09)
 Smallest eigenvalue of S kept     2.23E-08  (threshold= 2.23E-08, 0 functions deleted, 376 kept)
 
 CPU time for CABS singles                        0.15 sec

 CABS-singles contribution of  -0.01590033 patched into reference energy.
 New reference energy        -263.78253115
 
 AO(A)-basis ORBITAL           loaded. Number of functions:     230
 RI(R)-basis CC-PVTZ/JKFIT     loaded. Number of functions:     376
 DF-basis AUG-CC-PVTZ/MP2FIT   loaded. Number of functions:     516

 Screening thresholds:   THRAO=  1.00D-10  THRMO=  1.00D-09  THRPROD=  1.00D-09
                         THRSW=  1.00D-05  THROV=  1.00D-12  THRF12=   1.00D-08

 CPU time for 3-index integral evaluation         3.00 sec
 CPU time for first  half transformation          0.23 sec (13366.3 MFLOP/sec)
 CPU time for second half transformation          0.03 sec ( 3450.4 MFLOP/sec)
 CPU time for sorting                             0.15 sec
 CPU time for fitting                             0.05 sec (27861.0 MFLOP/sec)
 CPU time for tilde quantities                    0.04 sec (46222.0 MFLOP/sec)
 CPU time for assembly                            0.74 sec (31929.5 MFLOP/sec)
 CPU time for tranop_f12                          0.87 sec (34897.7 MFLOP/sec)
 CPU time for f12 integrals (total)               7.04 sec
 F12-matrices built in  3 passes.
 F12-matrices built in  3 passes.
 F12-matrices built in  3 passes.
 F12-matrices built in  3 passes.
 FC-matrix built in  3 passes.
 CPU time for f12 matrices (total)                0.48 sec

 Diagonal F12 approximation with fixed coefficients:  TSING= 0.500,  TTRIP= 0.250 (scaled by -1/beta)

 DF-MP2-F12 energy corrections:
 ------------------------------
 Approx.                                    Singlet             Triplet             Total
 DF-MP2-F12/3*C(DX,FIX)                -0.097182484567     -0.016951432107     -0.114133916674
 DF-MP2-F12/3*C(FIX)                   -0.079607705977     -0.013430943827     -0.093038649803
 DF-MP2-F12/3C(FIX)                    -0.079992063925     -0.013468557320     -0.093460621245

 DF-MP2-F12 correlation energies:
 --------------------------------
 Approx.                                    Singlet             Triplet             Ecorr            Total Energy
 DF-MP2                                -0.538823682300     -0.345374270759     -0.884197953059   -264.666729103366
 DF-MP2-F12/3*C(DX,FIX)                -0.636006166867     -0.362325702866     -0.998331869734   -264.780863020041
 DF-MP2-F12/3*C(FIX)                   -0.618431388276     -0.358805214586     -0.977236602862   -264.759767753170
 DF-MP2-F12/3C(FIX)                    -0.618815746224     -0.358842828080     -0.977658574304   -264.760189724611

 SCS-DF-MP2 energies (F_SING= 1.20000  F_TRIP= 0.62222  F_PARALLEL= 0.33333):
 ----------------------------------------------------------------------------
 SCS-DF-MP2                            -0.861487965010   -264.644019115317
 SCS-DF-MP2-F12/3*C(DX,FIX)            -0.988654504246   -264.771185654554
 SCS-DF-MP2-F12/3*C(FIX)               -0.965374243896   -264.747905394204
 SCS-DF-MP2-F12/3C(FIX)                -0.965858877386   -264.748390027693

 Symmetry restored.
 Symmetry transformation completed.

 Number of N-1 electron functions:              12
 Number of N-2 electron functions:              78
 Number of singly external CSFs:               750
 Number of doubly external CSFs:            844332
 Total number of CSFs:                      845083

 Pair and operator lists are different

 Length of J-op  integral file:             462.28 MB
 Length of K-op  integral file:             502.25 MB
 Length of 3-ext integral record:             0.00 MB

 Memory could be reduced to 38.71 Mwords without degradation in triples

 Integral transformation finished. Total CPU:   1.35 sec, npass=  1  Memory used:   7.09 MW

 Reference energy:                   -263.78253115

 Adding F12 terms to K(Cij), methodcc=6,  factor=1.0

 ITER.      SQ.NORM     CORR.ENERGY   TOTAL ENERGY   ENERGY CHANGE        DEN1      VAR(S)    VAR(P)  DIIS     TIME
   1      1.20291722    -0.86581951  -264.64835066     0.01838991     0.04728328  0.73D-02  0.56D-02  1  1    11.20
   2      1.21737153    -0.86153890  -264.64407005     0.00428061    -0.02034396  0.89D-04  0.59D-03  2  2    12.13
   3      1.22278064    -0.86163461  -264.64416577    -0.00009572    -0.00235557  0.13D-03  0.32D-04  3  3    13.06
   4      1.22561909    -0.86149804  -264.64402919     0.00013658    -0.00142217  0.78D-05  0.41D-05  4  4    13.99
   5      1.22666266    -0.86145890  -264.64399005     0.00003913    -0.00036930  0.60D-06  0.29D-06  5  5    14.92
   6      1.22682692    -0.86143206  -264.64396322     0.00002684    -0.00000788  0.45D-07  0.26D-07  6  6    15.86
   7      1.22685842    -0.86142915  -264.64396030     0.00000291    -0.00000671  0.37D-08  0.43D-08  6  2    16.80
   8      1.22685643    -0.86142940  -264.64396055    -0.00000025     0.00000373  0.68D-09  0.48D-09  6  3    17.74
   9      1.22685945    -0.86142897  -264.64396012     0.00000044    -0.00000106  0.74D-10  0.45D-10  6  4    18.68

 Norm of t1 vector:      0.10704631      S-energy:     0.00000024      T1 diagnostic:  0.01545080
                                                                       D1 diagnostic:  0.04512743

 Adding energy correction from Wij-K(Fij), methodcc=6  factor=1.0
 
  CCSD correlation energy              -0.861428965741
  MP2-F12 correction (uncoupled)       -0.092279200319
  C*T doubles correction               -0.001481339895
  f12b correction                       0.015403051283


 Total CPU time for triples:     27.06 sec


 RESULTS
 =======

  Reference energy                   -263.766630815916
  F12 singles correction               -0.015900334392

 F12 singles corrections added to reference energy

  New reference energy               -263.782531150307

  F12a singlet correction              -0.080182434091
  F12a triplet correction              -0.013578106123
  F12a total correction                -0.093760540214

 F12a corrections for ansatz F12/3C(FIX) added to CCSD energy
 
  CCSD-F12a singlet pair energy        -0.642417961978
  CCSD-F12a triplet pair energy        -0.312771787616
  CCSD-F12a correlation energy         -0.955189505955

  Triples (T) contribution             -0.038234846582
  Total correlation energy             -0.993424352537

  CCSD-F12a total energy             -264.737720656262
  CCSD[T]-F12a energy                -264.778549018211
  CCSD-T-F12a energy                 -264.775002864377
 !CCSD(T)-F12a total energy          -264.775955502844

 F12b corrections for ansatz F12/3C(FIX) added to CCSD(T)-F12a energy

  CCSD-F12b singlet pair energy        -0.628243763666
  CCSD-F12b triplet pair energy        -0.311542934644
  CCSD-F12b correlation energy         -0.939786454672

  Triples (T) contribution             -0.038234846582
  Total correlation energy             -0.978021301254

  CCSD-F12b total energy             -264.722317604979
  CCSD[T]-F12b energy                -264.763145966928
  CCSD-T-F12b energy                 -264.759599813094
 !CCSD(T)-F12b total energy          -264.760552451561

 Timing summary (sec):

 STEP                 CPU(USER)    SYS     CPU(TOT)    WALL
 Transformation          1.36      0.22      1.58      1.57
 CCSD iterations         8.36      0.70      9.06      9.06
 Triples                27.06      0.76     27.82     29.00
 MP2-F12                 8.96      1.14     10.10     10.10
 F12b energy             0.57      0.02      0.59      0.59

 Program statistics:

 Available memory in ccsd:                99998934
 Min. memory needed in ccsd:               2252999
 Max. memory used in ccsd:                 3011949
 Max. memory used in cckext:               2777209 (10 integral passes)



 **********************************************************************************************************************************
 DATASETS  * FILE   NREC   LENGTH (MB)   RECORD NAMES
              1      20      137.17       500      610      700      900      950      970     1000      129      960     1100   
                                          VAR    BASINP    GEOM    SYMINP    ZMAT    AOBASIS   BASIS     P2S    ABASIS      S 
                                         1400     1410     1200     1210     1080     1600     1650     1700      960(1)  1380   
                                           T        V       H0       H01     AOSYM     SMH    MOLCAS    OPER    ABASIS    JKOP   

              2       5        0.98       700     1000     2100     7360     7350   
                                         GEOM     BASIS     RHF    F12ABS    EF12   

 PROGRAMS   *        TOTAL   CCSD(T)        HF       INT
 CPU TIMES  *        53.64     46.44      1.27      5.87
 REAL TIME  *        59.27 SEC
 DISK USED  *         1.68 GB      
 SF USED    *         1.34 GB      
 GA USED    *         2.40 MB       (max)       0.00 MB       (current)
 **********************************************************************************************************************************

     CCSD(T)-F12        HF-SCF  
   -264.76055245   -263.76663082
 **********************************************************************************************************************************
 Variable memory released
