
 Primary working directories    : /scratch/kee
 Secondary working directories  : /scratch/kee
 Wavefunction directory         : /home/kee/wfu/
 Main file repository           : /scratch/kee/

 ARCHNAME  : Linux/x86_64
 FC        : /opt/intel/composer_xe_2015.0.090/bin/intel64/ifort
 FCVERSION : 15.0.0
 BLASLIB   : -L/opt/intel/mkl/lib/intel64 -lmkl_intel_ilp64 -lmkl_sequential -lmkl_core
 id        : emory

 Nodes     nprocs
 node22       3
 Number of processes for MPI-2 version of Molpro:   nprocs(total)=    4   nprocs(compute)=    3   nprocs(helper)=    1
 ga_uses_ma=false, calling ma_init with nominal heap.
 GA-space will be limited to   8.0 MW (determined by -G option)

 Using customized tuning parameters: mindgm=7; mindgv=32; mindgc=1; mindgr=1; noblas=0; mincuda=1000; minvec=7
 default implementation of scratch files=sf  

 ***,co2h2o
 memory,100,m
 basis avtz
 geomtype = xyz
 geometry = {
 6
       0.00000000
 O     0.01288800    1.16233300    0.00000000
 O     0.01288800   -1.16233300    0.00000000
 O     3.35363900    0.00000000    0.00000000
 H     2.77249900    0.76306800    0.00000000
 H     2.77249900   -0.76306800    0.00000000
 C     0.00363900    0.00000000    0.00000000
 }
 hf
 ccsd(t)-f12
 ---

 Variables initialized (665), CPU time= 0.00 sec
 Commands  initialized (462), CPU time= 0.01 sec, 486 directives.
 Default parameters read. Elapsed time= 0.04 sec

 Checking input...
 Passed
1


                                         ***  PROGRAM SYSTEM MOLPRO  ***
                         Copyright, University College Cardiff Consultants Limited, 2008

                                    Version 2010.1 linked 9 Dec 2014 15:06:28 


 **********************************************************************************************************************************
 LABEL *   co2h2o                                                                        
 Linux-2.6.32-504.el6.x86_64/node22(x86_64) 64 bit mpp version                           DATE: 15-Dec-16          TIME: 00:21:58  
 **********************************************************************************************************************************

 Patch level:      19
 **********************************************************************************************************************************

 Variable memory set to  100000000 words,  buffer space   230000 words

 SETTING BASIS          =    AVTZ
 SETTING GEOMTYPE       =    XYZ

Geometry recognized as XYZ



 Recomputing integrals since basis changed


 Using spherical harmonics

 Library entry O      S aug-cc-pVTZ          selected for orbital group  1
 Library entry O      P aug-cc-pVTZ          selected for orbital group  1
 Library entry O      D aug-cc-pVTZ          selected for orbital group  1
 Library entry O      F aug-cc-pVTZ          selected for orbital group  1
 Library entry H      S aug-cc-pVTZ          selected for orbital group  2
 Library entry H      P aug-cc-pVTZ          selected for orbital group  2
 Library entry H      D aug-cc-pVTZ          selected for orbital group  2
 Library entry C      S aug-cc-pVTZ          selected for orbital group  3
 Library entry C      P aug-cc-pVTZ          selected for orbital group  3
 Library entry C      D aug-cc-pVTZ          selected for orbital group  3
 Library entry C      F aug-cc-pVTZ          selected for orbital group  3

1PROGRAM * SEWARD (Integral evaluation for generally contracted gaussian basis sets)     Author: Roland Lindh, 1990

 Geometry written to block  1 of record 700


 Point group  C2v 



 ATOMIC COORDINATES

 NR  ATOM    CHARGE       X              Y              Z

   1  O       8.00    0.024354790    2.196491044    0.000000000
   2  O       8.00    0.024354790   -2.196491044    0.000000000
   3  O       8.00    6.337459254    0.000000000    0.000000000
   4  H       1.00    5.239263810    1.441989540    0.000000000
   5  H       1.00    5.239263810   -1.441989540    0.000000000
   6  C       6.00    0.006876713    0.000000000    0.000000000

 Bond lengths in Bohr (Angstrom)

 1-6  2.196560581  2-6  2.196560581  3-4  1.812558155  3-5  1.812558155
     (1.162369798)     (1.162369798)     (0.959164466)     (0.959164466)

 Bond angles

  1-6-2  179.08818302   4-3-5  105.41539946

 NUCLEAR CHARGE:                   32
 NUMBER OF PRIMITIVE AOS:         322
 NUMBER OF SYMMETRY AOS:          282
 NUMBER OF CONTRACTIONS:          230   (  84A1  +  68B1  +  45B2  +  33A2  )
 NUMBER OF CORE ORBITALS:           4   (   3A1  +   1B1  +   0B2  +   0A2  )
 NUMBER OF VALENCE ORBITALS:       18   (   8A1  +   6B1  +   3B2  +   1A2  )


 NUCLEAR REPULSION ENERGY  101.94272673


 Eigenvalues of metric

         1 0.285E-03 0.321E-03 0.880E-03 0.117E-02 0.183E-02 0.251E-02 0.314E-02 0.399E-02
         2 0.287E-03 0.355E-03 0.808E-03 0.130E-02 0.164E-02 0.251E-02 0.339E-02 0.483E-02
         3 0.312E-02 0.492E-02 0.133E-01 0.261E-01 0.313E-01 0.348E-01 0.576E-01 0.622E-01
         4 0.347E-02 0.118E-01 0.291E-01 0.338E-01 0.537E-01 0.654E-01 0.985E-01 0.140E+00


 Contracted 2-electron integrals neglected if value below      1.0D-11
 AO integral compression algorithm  1   Integral accuracy      1.0D-11

     407.634 MB (compressed) written to integral file ( 45.4%)

     Node minimum: 133.169 MB, node maximum: 139.198 MB


 NUMBER OF SORTED TWO-ELECTRON INTEGRALS:   30156294.     BUFFER LENGTH:  32768
 NUMBER OF SEGMENTS:   2  SEGMENT LENGTH:   15999663      RECORD LENGTH: 524288

 Memory used in sort:      16.56 MW

 SORT1 READ   112167128. AND WROTE    27781075. INTEGRALS IN     80 RECORDS. CPU TIME:     2.62 SEC, REAL TIME:     2.97 SEC
 SORT2 READ    83676298. AND WROTE    90461370. INTEGRALS IN   1548 RECORDS. CPU TIME:     0.62 SEC, REAL TIME:     0.89 SEC

 Node minimum:    30151286.  Node maximum:    30156294. integrals

 OPERATOR DM      FOR CENTER  0  COORDINATES:    0.000000    0.000000    0.000000


 **********************************************************************************************************************************
 DATASETS  * FILE   NREC   LENGTH (MB)   RECORD NAMES
              1      18        3.24       500      610      700      900      950      970     1000      129      960     1100   
                                          VAR    BASINP    GEOM    SYMINP    ZMAT    AOBASIS   BASIS     P2S    ABASIS      S 
                                         1400     1410     1200     1210     1080     1600     1650     1700   
                                           T        V       H0       H01     AOSYM     SMH    MOLCAS    OPER   

 PROGRAMS   *        TOTAL       INT
 CPU TIMES  *         5.94      5.88
 REAL TIME  *         6.78 SEC
 DISK USED  *         1.40 GB      
 GA USED    *         0.00 MB       (max)       0.00 MB       (current)
 **********************************************************************************************************************************

1PROGRAM * RHF-SCF (CLOSED SHELL)       Authors: W. Meyer, H.-J. Werner


 NUMBER OF ELECTRONS:      16+   16-
 CONVERGENCE THRESHOLDS:    1.00E-05 (Density)    1.00E-07 (Energy)
 MAX. NUMBER OF ITERATIONS:       60
 INTERPOLATION TYPE:            DIIS
 INTERPOLATION STEPS:              2 (START)      1 (STEP)
 LEVEL SHIFTS:                  0.00 (CLOSED)  0.00 (OPEN) 



 Orbital guess generated from atomic densities. Full valence occupancy:   11   7   3   1

 Molecular orbital dump at record        2100.2

 Initial alpha occupancy:   8   5   2   1
 Initial beta  occupancy:   8   5   2   1
 Wave function symmetry:    1

 ITERATION    DDIFF          GRAD             ENERGY        2-EL.EN.            DIPOLE MOMENTS         DIIS
    1      0.000D+00      0.000D+00      -263.65674767    397.900128   -1.17839    0.00000    0.00000    0
    2      0.000D+00      0.888D-02      -263.72275224    394.186042   -0.72194    0.00000    0.00000    1
    3      0.142D-01      0.606D-02      -263.76748856    396.514891   -0.83354    0.00000    0.00000    2
    4      0.588D-02      0.570D-03      -263.76799641    396.284073   -0.83383    0.00000    0.00000    3
    5      0.704D-03      0.165D-03      -263.76805513    396.297946   -0.82847    0.00000    0.00000    4
    6      0.258D-03      0.647D-04      -263.76806205    396.311198   -0.82896    0.00000    0.00000    5
    7      0.842D-04      0.165D-04      -263.76806279    396.303395   -0.82843    0.00000    0.00000    6
    8      0.284D-04      0.354D-05      -263.76806284    396.304667   -0.82842    0.00000    0.00000    7
    9      0.772D-05      0.115D-05      -263.76806284    396.304523   -0.82838    0.00000    0.00000    0

 Final occupancy:   8   5   2   1

 !RHF STATE 1.1 Energy               -263.768062840183
 Nuclear energy                       101.94272673
 One-electron energy                 -563.86305116
 Two-electron energy                  198.15226159
 Virial quotient                       -1.00180078
 !RHF STATE 1.1 Dipole moment          -0.82838452     0.00000000     0.00000000
 Dipole moment /Debye                  -2.10540553     0.00000000     0.00000000

 Orbital energies:

         1.1          2.1          3.1          4.1          5.1          6.1          7.1          8.1          9.1         10.1
    -20.669706   -20.572064   -11.478454    -1.547526    -1.357659    -0.817332    -0.733259    -0.587484     0.031987     0.059088

         1.2          2.2          3.2          4.2          5.2          6.2          7.2
    -20.669752    -1.494388    -0.759515    -0.723785    -0.561582     0.052831     0.089630

         1.3          2.3          3.3          4.3
     -0.731056    -0.514960     0.068971     0.164727

         1.4          2.4          3.4
     -0.560743     0.155552     0.285535


 **********************************************************************************************************************************
 DATASETS  * FILE   NREC   LENGTH (MB)   RECORD NAMES
              1      18        3.25       500      610      700      900      950      970     1000      129      960     1100   
                                          VAR    BASINP    GEOM    SYMINP    ZMAT    AOBASIS   BASIS     P2S    ABASIS      S 
                                         1400     1410     1200     1210     1080     1600     1650     1700   
                                           T        V       H0       H01     AOSYM     SMH    MOLCAS    OPER   

              2       3        0.68       700     1000     2100   
                                         GEOM     BASIS     RHF  

 PROGRAMS   *        TOTAL        HF       INT
 CPU TIMES  *         7.24      1.30      5.88
 REAL TIME  *         8.23 SEC
 DISK USED  *         1.42 GB      
 SF USED    *         0.06 MB      
 GA USED    *         0.00 MB       (max)       0.00 MB       (current)
 **********************************************************************************************************************************


1PROGRAM * CCSD (Closed-shell coupled cluster)     Authors: C. Hampel, H.-J. Werner, 1991, M. Deegan, P.J. Knowles, 1992

                                  CCSD-F12 implementation by  H.-J. Werner, 2007

                   Density fitting integral evaluation by F.R. Manby, 2003,2007, G. Knizia, 2010

 Basis set CC-PVTZ/JKFIT generated.      Number of basis functions:   376 
 Basis set AUG-CC-PVTZ/MP2FIT generated. Number of basis functions:   516 

 Convergence thresholds:  THRVAR = 1.00D-08  THRDEN = 1.00D-06

 CCSD(T)     terms to be evaluated (factor= 1.000)


 Number of core orbitals:           4 (   3   1   0   0 )
 Number of closed-shell orbitals:  12 (   5   4   2   1 )
 Number of external orbitals:     214 (  76  63  43  32 )

 Molecular orbitals read from record     2100.2  Type=RHF/CANONICAL (state 1.1)

 MP2-F12 correlation treatment (H.-J. Werner, 2006)
 --------------------------------------------------

 Using MP2-F12 with ansatz 3C(FIX)

 Using projected zeroth-order Hamiltonian (+Z)

 FOCKRIB=T FOCKRIC=T FOCKRIP=T CABSP=T CABSA=T CABSK=T CABSF=T GBC=F EBC=F DMAT=T NOFIK=T NOPAO=1 SOLVE=-1  USEPAO=0
 EXCH_A= T EXCH_B= F EXCH_C= F EXCH_P= F
 
 Geminal basis:    OPTFULL  GEM_TYPE=SLATER  BETA=1.0  NGEM=6

 Optimizing Gaussian exponents for each gem_beta

 Geminal optimization for beta= 1.0000
 Weight function:   m=0, omega= 1.4646

 Augmented Hessian optimization of geminal fit. Trust ratio= 0.40000
 Convergence reached after   2 iterations. Final gradient= 8.24D-16, Step= 4.32D-06, Delta= 1.28D-09
 
 Alpha:                 0.19532     0.81920     2.85917     9.50073    35.69989   197.79328
 Coeff:                 0.27070     0.30552     0.18297     0.10986     0.06810     0.04224
 

 Symmetry turned off. Reference energy:       -263.768062840183

 All pairs explicitly correlated. Number of r12-pairs:           78
 
 AO(A)-basis ORBITAL           loaded. Number of functions:     230
 RI(R)-basis CC-PVTZ/JKFIT     loaded. Number of functions:     376
 DF-basis CC-PVTZ/JKFIT        loaded. Number of functions:     376

 Screening thresholds:   THRAO=  1.00D-10  THRMO=  1.00D-09  THRPROD=  1.00D-09
                         THRSW=  1.00D-05  THROV=  1.00D-12  THRF12=   1.00D-08

 CPU time for Fock operators                      0.96 sec
 
 Construction of ABS:
 Smallest eigenvalue of S          2.39E-04  (threshold= 1.00E-08)
 Ratio eigmin/eigmax               1.70E-06  (threshold= 1.00E-09)
 Smallest eigenvalue of S kept     2.39E-04  (threshold= 2.39E-04, 0 functions deleted, 376 kept)
 
 Construction of CABS:
 Smallest eigenvalue of S          2.25E-08  (threshold= 1.00E-08)
 Ratio eigmin/eigmax               2.25E-08  (threshold= 1.00E-09)
 Smallest eigenvalue of S kept     2.25E-08  (threshold= 2.25E-08, 0 functions deleted, 376 kept)
 
 CPU time for CABS singles                        0.16 sec

 CABS-singles contribution of  -0.01590273 patched into reference energy.
 New reference energy        -263.78396557
 
 AO(A)-basis ORBITAL           loaded. Number of functions:     230
 RI(R)-basis CC-PVTZ/JKFIT     loaded. Number of functions:     376
 DF-basis AUG-CC-PVTZ/MP2FIT   loaded. Number of functions:     516

 Screening thresholds:   THRAO=  1.00D-10  THRMO=  1.00D-09  THRPROD=  1.00D-09
                         THRSW=  1.00D-05  THROV=  1.00D-12  THRF12=   1.00D-08

 CPU time for 3-index integral evaluation         2.88 sec
 CPU time for first  half transformation          0.30 sec ( 9404.4 MFLOP/sec)
 CPU time for second half transformation          0.02 sec ( 5060.7 MFLOP/sec)
 CPU time for sorting                             0.15 sec
 CPU time for fitting                             0.05 sec (27861.0 MFLOP/sec)
 CPU time for tilde quantities                    0.06 sec (30814.7 MFLOP/sec)
 CPU time for assembly                            0.81 sec (28815.0 MFLOP/sec)
 CPU time for tranop_f12                          0.86 sec (35436.9 MFLOP/sec)
 CPU time for f12 integrals (total)               7.09 sec
 F12-matrices built in  3 passes.
 F12-matrices built in  3 passes.
 F12-matrices built in  3 passes.
 F12-matrices built in  3 passes.
 FC-matrix built in  3 passes.
 CPU time for f12 matrices (total)                0.45 sec

 Diagonal F12 approximation with fixed coefficients:  TSING= 0.500,  TTRIP= 0.250 (scaled by -1/beta)

 DF-MP2-F12 energy corrections:
 ------------------------------
 Approx.                                    Singlet             Triplet             Total
 DF-MP2-F12/3*C(DX,FIX)                -0.097233406378     -0.016935870553     -0.114169276931
 DF-MP2-F12/3*C(FIX)                   -0.079658342163     -0.013410933426     -0.093069275590
 DF-MP2-F12/3C(FIX)                    -0.080041285877     -0.013444997958     -0.093486283835

 DF-MP2-F12 correlation energies:
 --------------------------------
 Approx.                                    Singlet             Triplet             Ecorr            Total Energy
 DF-MP2                                -0.538530265511     -0.344613166741     -0.883143432252   -264.667109005250
 DF-MP2-F12/3*C(DX,FIX)                -0.635763671889     -0.361549037294     -0.997312709183   -264.781278282182
 DF-MP2-F12/3*C(FIX)                   -0.618188607675     -0.358024100167     -0.976212707842   -264.760178280840
 DF-MP2-F12/3C(FIX)                    -0.618571551388     -0.358058164699     -0.976629716087   -264.760595289085

 SCS-DF-MP2 energies (F_SING= 1.20000  F_TRIP= 0.62222  F_PARALLEL= 0.33333):
 ----------------------------------------------------------------------------
 SCS-DF-MP2                            -0.860662289030   -264.644627862028
 SCS-DF-MP2-F12/3*C(DX,FIX)            -0.987880251695   -264.771845824693
 SCS-DF-MP2-F12/3*C(FIX)               -0.964596880425   -264.748562453423
 SCS-DF-MP2-F12/3C(FIX)                -0.965077608590   -264.749043181588

 Symmetry restored.
 Symmetry transformation completed.

 Number of N-1 electron functions:              12
 Number of N-2 electron functions:              78
 Number of singly external CSFs:               750
 Number of doubly external CSFs:            844332
 Total number of CSFs:                      845083

 Pair and operator lists are different

 Length of J-op  integral file:             462.28 MB
 Length of K-op  integral file:             502.25 MB
 Length of 3-ext integral record:             0.00 MB

 Memory could be reduced to 38.71 Mwords without degradation in triples

 Integral transformation finished. Total CPU:   1.41 sec, npass=  1  Memory used:   7.09 MW

 Reference energy:                   -263.78396557

 Adding F12 terms to K(Cij), methodcc=6,  factor=1.0

 ITER.      SQ.NORM     CORR.ENERGY   TOTAL ENERGY   ENERGY CHANGE        DEN1      VAR(S)    VAR(P)  DIIS     TIME
   1      1.20278532    -0.86486718  -264.64883276     0.01828928     0.04712187  0.73D-02  0.56D-02  1  1    11.35
   2      1.21721600    -0.86060227  -264.64456785     0.00426491    -0.02029704  0.88D-04  0.59D-03  2  2    12.30
   3      1.22262206    -0.86069886  -264.64466443    -0.00009659    -0.00236325  0.13D-03  0.33D-04  3  3    13.26
   4      1.22545550    -0.86056521  -264.64453079     0.00013365    -0.00142069  0.78D-05  0.41D-05  4  4    14.24
   5      1.22649757    -0.86052635  -264.64449193     0.00003886    -0.00036898  0.58D-06  0.29D-06  5  5    15.22
   6      1.22666178    -0.86049948  -264.64446505     0.00002688    -0.00000797  0.44D-07  0.25D-07  6  6    16.20
   7      1.22669217    -0.86049694  -264.64446251     0.00000254    -0.00000633  0.35D-08  0.43D-08  6  4    17.19
   8      1.22669313    -0.86049643  -264.64446200     0.00000051     0.00000174  0.45D-09  0.36D-09  6  1    18.17
   9      1.22669360    -0.86049651  -264.64446208    -0.00000008     0.00000069  0.47D-10  0.37D-10  6  2    19.15

 Norm of t1 vector:      0.10676720      S-energy:    -0.00000002      T1 diagnostic:  0.01541052
                                                                       D1 diagnostic:  0.04510500

 Adding energy correction from Wij-K(Fij), methodcc=6  factor=1.0
 
  CCSD correlation energy              -0.860496507751
  MP2-F12 correction (uncoupled)       -0.092304668899
  C*T doubles correction               -0.001481775063
  f12b correction                       0.015401526015


 Total CPU time for triples:     25.38 sec


 RESULTS
 =======

  Reference energy                   -263.768062840183
  F12 singles correction               -0.015902732815

 F12 singles corrections added to reference energy

  New reference energy               -263.783965572998

  F12a singlet correction              -0.080229831533
  F12a triplet correction              -0.013556612428
  F12a total correction                -0.093786443961

 F12a corrections for ansatz F12/3C(FIX) added to CCSD energy
 
  CCSD-F12a singlet pair energy        -0.642299001762
  CCSD-F12a triplet pair energy        -0.311983932742
  CCSD-F12a correlation energy         -0.954282951713

  Triples (T) contribution             -0.038052515992
  Total correlation energy             -0.992335467704

  CCSD-F12a total energy             -264.738248524711
  CCSD[T]-F12a energy                -264.778882917461
  CCSD-T-F12a energy                 -264.775351573897
 !CCSD(T)-F12a total energy          -264.776301040702

 F12b corrections for ansatz F12/3C(FIX) added to CCSD(T)-F12a energy

  CCSD-F12b singlet pair energy        -0.628123641366
  CCSD-F12b triplet pair energy        -0.310757767124
  CCSD-F12b correlation energy         -0.938881425698

  Triples (T) contribution             -0.038052515992
  Total correlation energy             -0.976933941689

  CCSD-F12b total energy             -264.722846998696
  CCSD[T]-F12b energy                -264.763481391446
  CCSD-T-F12b energy                 -264.759950047882
 !CCSD(T)-F12b total energy          -264.760899514687

 Timing summary (sec):

 STEP                 CPU(USER)    SYS     CPU(TOT)    WALL
 Transformation          1.42      0.23      1.65      1.66
 CCSD iterations         8.70      0.73      9.43      9.55
 Triples                25.38      0.74     26.12     26.11
 MP2-F12                 9.04      1.19     10.23     10.23
 F12b energy             0.59      0.03      0.62      0.62

 Program statistics:

 Available memory in ccsd:                99998934
 Min. memory needed in ccsd:               2252999
 Max. memory used in ccsd:                 3011949
 Max. memory used in cckext:               2777209 (10 integral passes)



 **********************************************************************************************************************************
 DATASETS  * FILE   NREC   LENGTH (MB)   RECORD NAMES
              1      20      137.17       500      610      700      900      950      970     1000      129      960     1100   
                                          VAR    BASINP    GEOM    SYMINP    ZMAT    AOBASIS   BASIS     P2S    ABASIS      S 
                                         1400     1410     1200     1210     1080     1600     1650     1700      960(1)  1380   
                                           T        V       H0       H01     AOSYM     SMH    MOLCAS    OPER    ABASIS    JKOP   

              2       5        0.98       700     1000     2100     7360     7350   
                                         GEOM     BASIS     RHF    F12ABS    EF12   

 PROGRAMS   *        TOTAL   CCSD(T)        HF       INT
 CPU TIMES  *        52.39     45.15      1.30      5.88
 REAL TIME  *        56.67 SEC
 DISK USED  *         1.64 GB      
 SF USED    *         1.34 GB      
 GA USED    *         2.40 MB       (max)       0.00 MB       (current)
 **********************************************************************************************************************************

     CCSD(T)-F12        HF-SCF  
   -264.76089951   -263.76806284
 **********************************************************************************************************************************
 Variable memory released
