
 Primary working directories    : /scratch/kee
 Secondary working directories  : /scratch/kee
 Wavefunction directory         : /home/kee/wfu/
 Main file repository           : /scratch/kee/

 ARCHNAME  : Linux/x86_64
 FC        : /opt/intel/composer_xe_2015.0.090/bin/intel64/ifort
 FCVERSION : 15.0.0
 BLASLIB   : -L/opt/intel/mkl/lib/intel64 -lmkl_intel_ilp64 -lmkl_sequential -lmkl_core
 id        : emory

 Nodes     nprocs
 node22       3
 Number of processes for MPI-2 version of Molpro:   nprocs(total)=    4   nprocs(compute)=    3   nprocs(helper)=    1
 ga_uses_ma=false, calling ma_init with nominal heap.
 GA-space will be limited to   8.0 MW (determined by -G option)

 Using customized tuning parameters: mindgm=7; mindgv=32; mindgc=1; mindgr=1; noblas=0; mincuda=1000; minvec=7
 default implementation of scratch files=sf  

 ***,co2h2o
 memory,100,m
 basis avtz
 geomtype = xyz
 geometry = {
 6
       0.00000000
 O     0.01288800    1.16233300    0.00000000
 O     0.01288800   -1.16233300    0.00000000
 O     3.20363900    0.00000000    0.00000000
 H     2.62249900    0.76306800    0.00000000
 H     2.62249900   -0.76306800    0.00000000
 C     0.00363900    0.00000000    0.00000000
 }
 hf
 ccsd(t)-f12
 ---

 Variables initialized (665), CPU time= 0.01 sec
 Commands  initialized (462), CPU time= 0.01 sec, 486 directives.
 Default parameters read. Elapsed time= 0.05 sec

 Checking input...
 Passed
1


                                         ***  PROGRAM SYSTEM MOLPRO  ***
                         Copyright, University College Cardiff Consultants Limited, 2008

                                    Version 2010.1 linked 9 Dec 2014 15:06:28 


 **********************************************************************************************************************************
 LABEL *   co2h2o                                                                        
 Linux-2.6.32-504.el6.x86_64/node22(x86_64) 64 bit mpp version                           DATE: 15-Dec-16          TIME: 00:19:00  
 **********************************************************************************************************************************

 Patch level:      19
 **********************************************************************************************************************************

 Variable memory set to  100000000 words,  buffer space   230000 words

 SETTING BASIS          =    AVTZ
 SETTING GEOMTYPE       =    XYZ

Geometry recognized as XYZ



 Recomputing integrals since basis changed


 Using spherical harmonics

 Library entry O      S aug-cc-pVTZ          selected for orbital group  1
 Library entry O      P aug-cc-pVTZ          selected for orbital group  1
 Library entry O      D aug-cc-pVTZ          selected for orbital group  1
 Library entry O      F aug-cc-pVTZ          selected for orbital group  1
 Library entry H      S aug-cc-pVTZ          selected for orbital group  2
 Library entry H      P aug-cc-pVTZ          selected for orbital group  2
 Library entry H      D aug-cc-pVTZ          selected for orbital group  2
 Library entry C      S aug-cc-pVTZ          selected for orbital group  3
 Library entry C      P aug-cc-pVTZ          selected for orbital group  3
 Library entry C      D aug-cc-pVTZ          selected for orbital group  3
 Library entry C      F aug-cc-pVTZ          selected for orbital group  3

1PROGRAM * SEWARD (Integral evaluation for generally contracted gaussian basis sets)     Author: Roland Lindh, 1990

 Geometry written to block  1 of record 700


 Point group  C2v 



 ATOMIC COORDINATES

 NR  ATOM    CHARGE       X              Y              Z

   1  O       8.00    0.024354790    2.196491044    0.000000000
   2  O       8.00    0.024354790   -2.196491044    0.000000000
   3  O       8.00    6.054000334    0.000000000    0.000000000
   4  H       1.00    4.955804890    1.441989540    0.000000000
   5  H       1.00    4.955804890   -1.441989540    0.000000000
   6  C       6.00    0.006876713    0.000000000    0.000000000

 Bond lengths in Bohr (Angstrom)

 1-6  2.196560581  2-6  2.196560581  3-4  1.812558155  3-5  1.812558155
     (1.162369798)     (1.162369798)     (0.959164466)     (0.959164466)

 Bond angles

  1-6-2  179.08818302   4-3-5  105.41539946

 NUCLEAR CHARGE:                   32
 NUMBER OF PRIMITIVE AOS:         322
 NUMBER OF SYMMETRY AOS:          282
 NUMBER OF CONTRACTIONS:          230   (  84A1  +  68B1  +  45B2  +  33A2  )
 NUMBER OF CORE ORBITALS:           4   (   3A1  +   1B1  +   0B2  +   0A2  )
 NUMBER OF VALENCE ORBITALS:       18   (   8A1  +   6B1  +   3B2  +   1A2  )


 NUCLEAR REPULSION ENERGY  103.47720149


 Eigenvalues of metric

         1 0.274E-03 0.304E-03 0.872E-03 0.111E-02 0.168E-02 0.231E-02 0.312E-02 0.393E-02
         2 0.278E-03 0.348E-03 0.795E-03 0.118E-02 0.162E-02 0.236E-02 0.318E-02 0.469E-02
         3 0.311E-02 0.480E-02 0.132E-01 0.255E-01 0.312E-01 0.347E-01 0.571E-01 0.617E-01
         4 0.347E-02 0.116E-01 0.291E-01 0.331E-01 0.533E-01 0.647E-01 0.949E-01 0.140E+00


 Contracted 2-electron integrals neglected if value below      1.0D-11
 AO integral compression algorithm  1   Integral accuracy      1.0D-11

     417.858 MB (compressed) written to integral file ( 46.6%)

     Node minimum: 131.596 MB, node maximum: 150.471 MB


 NUMBER OF SORTED TWO-ELECTRON INTEGRALS:   30156294.     BUFFER LENGTH:  32768
 NUMBER OF SEGMENTS:   2  SEGMENT LENGTH:   15999663      RECORD LENGTH: 524288

 Memory used in sort:      16.56 MW

 SORT1 READ   112167128. AND WROTE    28221541. INTEGRALS IN     82 RECORDS. CPU TIME:     2.39 SEC, REAL TIME:     2.71 SEC
 SORT2 READ    84922581. AND WROTE    90461370. INTEGRALS IN   1722 RECORDS. CPU TIME:     0.69 SEC, REAL TIME:     0.91 SEC

 Node minimum:    30151286.  Node maximum:    30156294. integrals

 OPERATOR DM      FOR CENTER  0  COORDINATES:    0.000000    0.000000    0.000000


 **********************************************************************************************************************************
 DATASETS  * FILE   NREC   LENGTH (MB)   RECORD NAMES
              1      18        3.24       500      610      700      900      950      970     1000      129      960     1100   
                                          VAR    BASINP    GEOM    SYMINP    ZMAT    AOBASIS   BASIS     P2S    ABASIS      S 
                                         1400     1410     1200     1210     1080     1600     1650     1700   
                                           T        V       H0       H01     AOSYM     SMH    MOLCAS    OPER   

 PROGRAMS   *        TOTAL       INT
 CPU TIMES  *         5.93      5.82
 REAL TIME  *         6.96 SEC
 DISK USED  *         1.43 GB      
 GA USED    *         0.00 MB       (max)       0.00 MB       (current)
 **********************************************************************************************************************************

1PROGRAM * RHF-SCF (CLOSED SHELL)       Authors: W. Meyer, H.-J. Werner


 NUMBER OF ELECTRONS:      16+   16-
 CONVERGENCE THRESHOLDS:    1.00E-05 (Density)    1.00E-07 (Energy)
 MAX. NUMBER OF ITERATIONS:       60
 INTERPOLATION TYPE:            DIIS
 INTERPOLATION STEPS:              2 (START)      1 (STEP)
 LEVEL SHIFTS:                  0.00 (CLOSED)  0.00 (OPEN) 



 Orbital guess generated from atomic densities. Full valence occupancy:   11   7   3   1

 Molecular orbital dump at record        2100.2

 Initial alpha occupancy:   8   5   2   1
 Initial beta  occupancy:   8   5   2   1
 Wave function symmetry:    1

 ITERATION    DDIFF          GRAD             ENERGY        2-EL.EN.            DIPOLE MOMENTS         DIIS
    1      0.000D+00      0.000D+00      -263.65574785    400.818955   -1.18984    0.00000    0.00000    0
    2      0.000D+00      0.889D-02      -263.72200705    397.232059   -0.72966    0.00000    0.00000    1
    3      0.142D-01      0.606D-02      -263.76678487    399.518841   -0.84128    0.00000    0.00000    2
    4      0.588D-02      0.573D-03      -263.76729902    399.284810   -0.84085    0.00000    0.00000    3
    5      0.710D-03      0.166D-03      -263.76735839    399.299966   -0.83524    0.00000    0.00000    4
    6      0.259D-03      0.649D-04      -263.76736534    399.313311   -0.83566    0.00000    0.00000    5
    7      0.845D-04      0.166D-04      -263.76736609    399.305544   -0.83511    0.00000    0.00000    6
    8      0.286D-04      0.354D-05      -263.76736614    399.306809   -0.83509    0.00000    0.00000    7
    9      0.773D-05      0.114D-05      -263.76736614    399.306670   -0.83506    0.00000    0.00000    0

 Final occupancy:   8   5   2   1

 !RHF STATE 1.1 Energy               -263.767366141289
 Nuclear energy                       103.47720149
 One-electron energy                 -566.89790240
 Two-electron energy                  199.65333476
 Virial quotient                       -1.00177594
 !RHF STATE 1.1 Dipole moment          -0.83505867     0.00000000     0.00000000
 Dipole moment /Debye                  -2.12236842     0.00000000     0.00000000

 Orbital energies:

         1.1          2.1          3.1          4.1          5.1          6.1          7.1          8.1          9.1         10.1
    -20.670937   -20.572028   -11.479781    -1.548952    -1.358106    -0.818647    -0.735429    -0.587334     0.032296     0.059620

         1.2          2.2          3.2          4.2          5.2          6.2          7.2
    -20.670982    -1.495784    -0.760856    -0.724250    -0.563026     0.053155     0.090211

         1.3          2.3          3.3          4.3
     -0.732342    -0.515139     0.069216     0.165358

         1.4          2.4          3.4
     -0.562023     0.155503     0.288551


 **********************************************************************************************************************************
 DATASETS  * FILE   NREC   LENGTH (MB)   RECORD NAMES
              1      18        3.25       500      610      700      900      950      970     1000      129      960     1100   
                                          VAR    BASINP    GEOM    SYMINP    ZMAT    AOBASIS   BASIS     P2S    ABASIS      S 
                                         1400     1410     1200     1210     1080     1600     1650     1700   
                                           T        V       H0       H01     AOSYM     SMH    MOLCAS    OPER   

              2       3        0.68       700     1000     2100   
                                         GEOM     BASIS     RHF  

 PROGRAMS   *        TOTAL        HF       INT
 CPU TIMES  *         7.23      1.30      5.82
 REAL TIME  *         8.38 SEC
 DISK USED  *         1.45 GB      
 SF USED    *         0.06 MB      
 GA USED    *         0.00 MB       (max)       0.00 MB       (current)
 **********************************************************************************************************************************


1PROGRAM * CCSD (Closed-shell coupled cluster)     Authors: C. Hampel, H.-J. Werner, 1991, M. Deegan, P.J. Knowles, 1992

                                  CCSD-F12 implementation by  H.-J. Werner, 2007

                   Density fitting integral evaluation by F.R. Manby, 2003,2007, G. Knizia, 2010

 Basis set CC-PVTZ/JKFIT generated.      Number of basis functions:   376 
 Basis set AUG-CC-PVTZ/MP2FIT generated. Number of basis functions:   516 

 Convergence thresholds:  THRVAR = 1.00D-08  THRDEN = 1.00D-06

 CCSD(T)     terms to be evaluated (factor= 1.000)


 Number of core orbitals:           4 (   3   1   0   0 )
 Number of closed-shell orbitals:  12 (   5   4   2   1 )
 Number of external orbitals:     214 (  76  63  43  32 )

 Molecular orbitals read from record     2100.2  Type=RHF/CANONICAL (state 1.1)

 MP2-F12 correlation treatment (H.-J. Werner, 2006)
 --------------------------------------------------

 Using MP2-F12 with ansatz 3C(FIX)

 Using projected zeroth-order Hamiltonian (+Z)

 FOCKRIB=T FOCKRIC=T FOCKRIP=T CABSP=T CABSA=T CABSK=T CABSF=T GBC=F EBC=F DMAT=T NOFIK=T NOPAO=1 SOLVE=-1  USEPAO=0
 EXCH_A= T EXCH_B= F EXCH_C= F EXCH_P= F
 
 Geminal basis:    OPTFULL  GEM_TYPE=SLATER  BETA=1.0  NGEM=6

 Optimizing Gaussian exponents for each gem_beta

 Geminal optimization for beta= 1.0000
 Weight function:   m=0, omega= 1.4646

 Augmented Hessian optimization of geminal fit. Trust ratio= 0.40000
 Convergence reached after   2 iterations. Final gradient= 8.24D-16, Step= 4.32D-06, Delta= 1.28D-09
 
 Alpha:                 0.19532     0.81920     2.85917     9.50073    35.69989   197.79328
 Coeff:                 0.27070     0.30552     0.18297     0.10986     0.06810     0.04224
 

 Symmetry turned off. Reference energy:       -263.767366141289

 All pairs explicitly correlated. Number of r12-pairs:           78
 
 AO(A)-basis ORBITAL           loaded. Number of functions:     230
 RI(R)-basis CC-PVTZ/JKFIT     loaded. Number of functions:     376
 DF-basis CC-PVTZ/JKFIT        loaded. Number of functions:     376

 Screening thresholds:   THRAO=  1.00D-10  THRMO=  1.00D-09  THRPROD=  1.00D-09
                         THRSW=  1.00D-05  THROV=  1.00D-12  THRF12=   1.00D-08

 CPU time for Fock operators                      0.95 sec
 
 Construction of ABS:
 Smallest eigenvalue of S          2.34E-04  (threshold= 1.00E-08)
 Ratio eigmin/eigmax               1.66E-06  (threshold= 1.00E-09)
 Smallest eigenvalue of S kept     2.34E-04  (threshold= 2.34E-04, 0 functions deleted, 376 kept)
 
 Construction of CABS:
 Smallest eigenvalue of S          2.23E-08  (threshold= 1.00E-08)
 Ratio eigmin/eigmax               2.23E-08  (threshold= 1.00E-09)
 Smallest eigenvalue of S kept     2.23E-08  (threshold= 2.23E-08, 0 functions deleted, 376 kept)
 
 CPU time for CABS singles                        0.15 sec

 CABS-singles contribution of  -0.01590015 patched into reference energy.
 New reference energy        -263.78326629
 
 AO(A)-basis ORBITAL           loaded. Number of functions:     230
 RI(R)-basis CC-PVTZ/JKFIT     loaded. Number of functions:     376
 DF-basis AUG-CC-PVTZ/MP2FIT   loaded. Number of functions:     516

 Screening thresholds:   THRAO=  1.00D-10  THRMO=  1.00D-09  THRPROD=  1.00D-09
                         THRSW=  1.00D-05  THROV=  1.00D-12  THRF12=   1.00D-08

 CPU time for 3-index integral evaluation         2.89 sec
 CPU time for first  half transformation          0.30 sec (10176.3 MFLOP/sec)
 CPU time for second half transformation          0.02 sec ( 5369.9 MFLOP/sec)
 CPU time for sorting                             0.12 sec
 CPU time for fitting                             0.04 sec (34826.3 MFLOP/sec)
 CPU time for tilde quantities                    0.05 sec (36977.6 MFLOP/sec)
 CPU time for assembly                            0.78 sec (31036.4 MFLOP/sec)
 CPU time for tranop_f12                          0.97 sec (33133.1 MFLOP/sec)
 CPU time for f12 integrals (total)               7.22 sec
 F12-matrices built in  3 passes.
 F12-matrices built in  3 passes.
 F12-matrices built in  3 passes.
 F12-matrices built in  3 passes.
 FC-matrix built in  3 passes.
 CPU time for f12 matrices (total)                0.50 sec

 Diagonal F12 approximation with fixed coefficients:  TSING= 0.500,  TTRIP= 0.250 (scaled by -1/beta)

 DF-MP2-F12 energy corrections:
 ------------------------------
 Approx.                                    Singlet             Triplet             Total
 DF-MP2-F12/3*C(DX,FIX)                -0.097201139743     -0.016943676071     -0.114144815814
 DF-MP2-F12/3*C(FIX)                   -0.079627024851     -0.013421686586     -0.093048711437
 DF-MP2-F12/3C(FIX)                    -0.080011116635     -0.013457723150     -0.093468839785

 DF-MP2-F12 correlation energies:
 --------------------------------
 Approx.                                    Singlet             Triplet             Ecorr            Total Energy
 DF-MP2                                -0.538696373387     -0.345029249209     -0.883725622596   -264.666991914441
 DF-MP2-F12/3*C(DX,FIX)                -0.635897513130     -0.361972925281     -0.997870438410   -264.781136730255
 DF-MP2-F12/3*C(FIX)                   -0.618323398238     -0.358450935795     -0.976774334033   -264.760040625878
 DF-MP2-F12/3C(FIX)                    -0.618707490021     -0.358486972359     -0.977194462381   -264.760460754226

 SCS-DF-MP2 energies (F_SING= 1.20000  F_TRIP= 0.62222  F_PARALLEL= 0.33333):
 ----------------------------------------------------------------------------
 SCS-DF-MP2                            -0.861120514239   -264.644386806084
 SCS-DF-MP2-F12/3*C(DX,FIX)            -0.988304613708   -264.771570905553
 SCS-DF-MP2-F12/3*C(FIX)               -0.965024215713   -264.748290507558
 SCS-DF-MP2-F12/3C(FIX)                -0.965507548605   -264.748773840450

 Symmetry restored.
 Symmetry transformation completed.

 Number of N-1 electron functions:              12
 Number of N-2 electron functions:              78
 Number of singly external CSFs:               750
 Number of doubly external CSFs:            844332
 Total number of CSFs:                      845083

 Pair and operator lists are different

 Length of J-op  integral file:             462.28 MB
 Length of K-op  integral file:             502.25 MB
 Length of 3-ext integral record:             0.00 MB

 Memory could be reduced to 38.71 Mwords without degradation in triples

 Integral transformation finished. Total CPU:   1.39 sec, npass=  1  Memory used:   7.09 MW

 Reference energy:                   -263.78326629

 Adding F12 terms to K(Cij), methodcc=6,  factor=1.0

 ITER.      SQ.NORM     CORR.ENERGY   TOTAL ENERGY   ENERGY CHANGE        DEN1      VAR(S)    VAR(P)  DIIS     TIME
   1      1.20286664    -0.86539468  -264.64866097     0.01834311     0.04721055  0.73D-02  0.56D-02  1  1    11.49
   2      1.21731192    -0.86112120  -264.64438749     0.00427348    -0.02032384  0.88D-04  0.59D-03  2  2    12.44
   3      1.22272050    -0.86121736  -264.64448365    -0.00009616    -0.00235938  0.13D-03  0.32D-04  3  3    13.37
   4      1.22555710    -0.86108211  -264.64434840     0.00013524    -0.00142167  0.78D-05  0.41D-05  4  4    14.33
   5      1.22660006    -0.86104309  -264.64430938     0.00003902    -0.00036918  0.59D-06  0.29D-06  5  5    15.29
   6      1.22676428    -0.86101623  -264.64428252     0.00002686    -0.00000792  0.45D-07  0.25D-07  6  6    16.26
   7      1.22679562    -0.86101335  -264.64427964     0.00000288    -0.00000672  0.34D-08  0.43D-08  6  2    17.22
   8      1.22679608    -0.86101313  -264.64427942     0.00000022     0.00000199  0.46D-09  0.39D-09  6  1    18.17
   9      1.22679642    -0.86101322  -264.64427951    -0.00000009     0.00000081  0.53D-10  0.39D-10  6  4    19.13

 Norm of t1 vector:      0.10692421      S-energy:    -0.00000000      T1 diagnostic:  0.01543318
                                                                       D1 diagnostic:  0.04511983

 Adding energy correction from Wij-K(Fij), methodcc=6  factor=1.0
 
  CCSD correlation energy              -0.861013216696
  MP2-F12 correction (uncoupled)       -0.092287164648
  C*T doubles correction               -0.001481562518
  f12b correction                       0.015402092345


 Total CPU time for triples:     25.03 sec


 RESULTS
 =======

  Reference energy                   -263.767366141289
  F12 singles correction               -0.015900150556

 F12 singles corrections added to reference energy

  New reference energy               -263.783266291845

  F12a singlet correction              -0.080200519353
  F12a triplet correction              -0.013568207812
  F12a total correction                -0.093768727165

 F12a corrections for ansatz F12/3C(FIX) added to CCSD energy
 
  CCSD-F12a singlet pair energy        -0.642368049174
  CCSD-F12a triplet pair energy        -0.312413891813
  CCSD-F12a correlation energy         -0.954781943861

  Triples (T) contribution             -0.038153707719
  Total correlation energy             -0.992935651580

  CCSD-F12a total energy             -264.738048235706
  CCSD[T]-F12a energy                -264.778790436444
  CCSD-T-F12a energy                 -264.775250623166
 !CCSD(T)-F12a total energy          -264.776201943425

 F12b corrections for ansatz F12/3C(FIX) added to CCSD(T)-F12a energy

  CCSD-F12b singlet pair energy        -0.628193541748
  CCSD-F12b triplet pair energy        -0.311186306893
  CCSD-F12b correlation energy         -0.939379851516

  Triples (T) contribution             -0.038153707719
  Total correlation energy             -0.977533559235

  CCSD-F12b total energy             -264.722646143361
  CCSD[T]-F12b energy                -264.763388344099
  CCSD-T-F12b energy                 -264.759848530821
 !CCSD(T)-F12b total energy          -264.760799851080

 Timing summary (sec):

 STEP                 CPU(USER)    SYS     CPU(TOT)    WALL
 Transformation          1.40      0.20      1.60      1.61
 CCSD iterations         8.55      0.66      9.21      9.19
 Triples                25.03      0.82     25.85     25.85
 MP2-F12                 9.20      1.12     10.32     10.31
 F12b energy             0.58      0.02      0.60      0.60

 Program statistics:

 Available memory in ccsd:                99998934
 Min. memory needed in ccsd:               2252999
 Max. memory used in ccsd:                 3011949
 Max. memory used in cckext:               2777209 (10 integral passes)



 **********************************************************************************************************************************
 DATASETS  * FILE   NREC   LENGTH (MB)   RECORD NAMES
              1      20      137.17       500      610      700      900      950      970     1000      129      960     1100   
                                          VAR    BASINP    GEOM    SYMINP    ZMAT    AOBASIS   BASIS     P2S    ABASIS      S 
                                         1400     1410     1200     1210     1080     1600     1650     1700      960(1)  1380   
                                           T        V       H0       H01     AOSYM     SMH    MOLCAS    OPER    ABASIS    JKOP   

              2       5        0.98       700     1000     2100     7360     7350   
                                         GEOM     BASIS     RHF    F12ABS    EF12   

 PROGRAMS   *        TOTAL   CCSD(T)        HF       INT
 CPU TIMES  *        52.01     44.78      1.30      5.82
 REAL TIME  *        56.22 SEC
 DISK USED  *         1.67 GB      
 SF USED    *         1.34 GB      
 GA USED    *         2.40 MB       (max)       0.00 MB       (current)
 **********************************************************************************************************************************

     CCSD(T)-F12        HF-SCF  
   -264.76079985   -263.76736614
 **********************************************************************************************************************************
 Variable memory released
