
 Primary working directories    : /scratch/kee
 Secondary working directories  : /scratch/kee
 Wavefunction directory         : /home/kee/wfu/
 Main file repository           : /scratch/kee/

 ARCHNAME  : Linux/x86_64
 FC        : /opt/intel/composer_xe_2015.0.090/bin/intel64/ifort
 FCVERSION : 15.0.0
 BLASLIB   : -L/opt/intel/mkl/lib/intel64 -lmkl_intel_ilp64 -lmkl_sequential -lmkl_core
 id        : emory

 Nodes     nprocs
 node25       3
 Number of processes for MPI-2 version of Molpro:   nprocs(total)=    4   nprocs(compute)=    3   nprocs(helper)=    1
 ga_uses_ma=false, calling ma_init with nominal heap.
 GA-space will be limited to   8.0 MW (determined by -G option)

 Using customized tuning parameters: mindgm=7; mindgv=32; mindgc=1; mindgr=1; noblas=0; mincuda=1000; minvec=7
 default implementation of scratch files=sf  

 ***,co2h2o
 memory,100,m
 basis avtz
 geomtype = xyz
 geometry = {
 6
       0.00000777
 O    10.97257393   -1.10347931    0.00000000
 O    11.76744404    1.08065151   -0.00000000
 O     7.44356282    0.00000000    0.00000000
 H     6.69556774    0.58340495    0.10287003
 H     8.19598802    0.58686026    0.10347930
 C    11.34356282    0.00000000    0.00000000
 }
 hf
 ccsd(t)-f12
 ---

 Variables initialized (665), CPU time= 0.01 sec
 Commands  initialized (462), CPU time= 0.00 sec, 486 directives.
 Default parameters read. Elapsed time= 0.03 sec

 Checking input...
 Passed
1


                                         ***  PROGRAM SYSTEM MOLPRO  ***
                         Copyright, University College Cardiff Consultants Limited, 2008

                                    Version 2010.1 linked 9 Dec 2014 15:06:28 


 **********************************************************************************************************************************
 LABEL *   co2h2o                                                                        
 Linux-2.6.32-504.el6.x86_64/node25(x86_64) 64 bit mpp version                           DATE: 18-Jan-17          TIME: 21:42:34  
 **********************************************************************************************************************************

 Patch level:      19
 **********************************************************************************************************************************

 Variable memory set to  100000000 words,  buffer space   230000 words

 SETTING BASIS          =    AVTZ
 SETTING GEOMTYPE       =    XYZ

Geometry recognized as XYZ



 Recomputing integrals since basis changed


 Using spherical harmonics

 Library entry O      S aug-cc-pVTZ          selected for orbital group  1
 Library entry O      P aug-cc-pVTZ          selected for orbital group  1
 Library entry O      D aug-cc-pVTZ          selected for orbital group  1
 Library entry O      F aug-cc-pVTZ          selected for orbital group  1
 Library entry H      S aug-cc-pVTZ          selected for orbital group  2
 Library entry H      P aug-cc-pVTZ          selected for orbital group  2
 Library entry H      D aug-cc-pVTZ          selected for orbital group  2
 Library entry C      S aug-cc-pVTZ          selected for orbital group  3
 Library entry C      P aug-cc-pVTZ          selected for orbital group  3
 Library entry C      D aug-cc-pVTZ          selected for orbital group  3
 Library entry C      F aug-cc-pVTZ          selected for orbital group  3

1PROGRAM * SEWARD (Integral evaluation for generally contracted gaussian basis sets)     Author: Roland Lindh, 1990

 Geometry written to block  1 of record 700


 Point group  C1  



 ATOMIC COORDINATES

 NR  ATOM    CHARGE       X              Y              Z

   1  O       8.00   20.735159684   -2.085273688    0.000000000
   2  O       8.00   22.237246502    2.042135397    0.000000000
   3  O       8.00   14.066295172    0.000000000    0.000000000
   4  H       1.00   12.652789323    1.102475579    0.194396184
   5  H       1.00   15.488172734    1.109005169    0.195547537
   6  C       6.00   21.436227084    0.000000000    0.000000000

 Bond lengths in Bohr (Angstrom)

 1-6  2.199968602  2-6  2.193615529  3-4  1.803119814  3-5  1.813799081
     (1.164173245)     (1.160811343)     (0.954169911)     (0.959821135)

 Bond angles

  1-6-2  177.16520951   4-3-5  103.24222917

 NUCLEAR CHARGE:                   32
 NUMBER OF PRIMITIVE AOS:         322
 NUMBER OF SYMMETRY AOS:          282
 NUMBER OF CONTRACTIONS:          230   ( 230A   )
 NUMBER OF CORE ORBITALS:           4   (   4A   )
 NUMBER OF VALENCE ORBITALS:       18   (  18A   )


 NUCLEAR REPULSION ENERGY   96.63794208


 Eigenvalues of metric

         1 0.243E-03 0.319E-03 0.340E-03 0.359E-03 0.847E-03 0.866E-03 0.941E-03 0.151E-02


 Contracted 2-electron integrals neglected if value below      1.0D-11
 AO integral compression algorithm  1   Integral accuracy      1.0D-11

     947.651 MB (compressed) written to integral file ( 28.8%)

     Node minimum: 297.271 MB, node maximum: 338.166 MB


 NUMBER OF SORTED TWO-ELECTRON INTEGRALS:  117629820.     BUFFER LENGTH:  32768
 NUMBER OF SEGMENTS:   8  SEGMENT LENGTH:   15997437      RECORD LENGTH: 524288

 Memory used in sort:      16.55 MW

 SORT1 READ   410697961. AND WROTE    73698968. INTEGRALS IN    215 RECORDS. CPU TIME:     4.79 SEC, REAL TIME:     5.54 SEC
 SORT2 READ   221729109. AND WROTE   352862895. INTEGRALS IN   3402 RECORDS. CPU TIME:     1.68 SEC, REAL TIME:     2.29 SEC

 Node minimum:   117612110.  Node maximum:   117629820. integrals

 OPERATOR DM      FOR CENTER  0  COORDINATES:    0.000000    0.000000    0.000000


 **********************************************************************************************************************************
 DATASETS  * FILE   NREC   LENGTH (MB)   RECORD NAMES
              1      18        4.62       500      610      700      900      950      970     1000      129      960     1100   
                                          VAR    BASINP    GEOM    SYMINP    ZMAT    AOBASIS   BASIS     P2S    ABASIS      S 
                                         1400     1410     1200     1210     1080     1600     1650     1700   
                                           T        V       H0       H01     AOSYM     SMH    MOLCAS    OPER   

 PROGRAMS   *        TOTAL       INT
 CPU TIMES  *        11.12     11.05
 REAL TIME  *        12.85 SEC
 DISK USED  *         3.56 GB      
 GA USED    *         0.00 MB       (max)       0.00 MB       (current)
 **********************************************************************************************************************************

1PROGRAM * RHF-SCF (CLOSED SHELL)       Authors: W. Meyer, H.-J. Werner


 NUMBER OF ELECTRONS:      16+   16-    SPACE SYMMETRY=1    SPIN SYMMETRY=Singlet 
 CONVERGENCE THRESHOLDS:    1.00E-05 (Density)    1.00E-07 (Energy)
 MAX. NUMBER OF ITERATIONS:       60
 INTERPOLATION TYPE:            DIIS
 INTERPOLATION STEPS:              2 (START)      1 (STEP)
 LEVEL SHIFTS:                  0.00 (CLOSED)  0.00 (OPEN) 



 Orbital guess generated from atomic densities. Full valence occupancy:   22

 Molecular orbital dump at record        2100.2

 ITERATION    DDIFF          GRAD             ENERGY        2-EL.EN.            DIPOLE MOMENTS         DIIS
    1      0.000D+00      0.000D+00      -263.65588809    388.398134   -0.06444    1.16809    0.19869    0
    2      0.000D+00      0.473D-02      -263.72206957    383.995224   -0.03833    0.59263    0.11078    1
    3      0.757D-02      0.323D-02      -263.76685849    386.521200   -0.04232    0.75629    0.13229    2
    4      0.313D-02      0.303D-03      -263.76736160    386.306392   -0.04489    0.74953    0.13331    3
    5      0.360D-03      0.906D-04      -263.76742227    386.311375   -0.04257    0.75163    0.13231    4
    6      0.137D-03      0.382D-04      -263.76743047    386.325278   -0.04404    0.74786    0.13243    5
    7      0.464D-04      0.105D-04      -263.76743137    386.318829   -0.04348    0.74930    0.13239    6
    8      0.164D-04      0.374D-05      -263.76743147    386.318292   -0.04376    0.74853    0.13237    7
    9      0.489D-05      0.177D-05      -263.76743148    386.319189   -0.04367    0.74885    0.13238    0

 Final occupancy:  16

 !RHF STATE 1.1 Energy               -263.767431475924
 Nuclear energy                        96.63794208
 One-electron energy                 -553.56496816
 Two-electron energy                  193.15959461
 Virial quotient                       -1.00177803
 !RHF STATE 1.1 Dipole moment          -0.04367254     0.74884781     0.13237750
 Dipole moment /Debye                  -0.11099725     1.90325660     0.33644800

 Orbital energies:

         1.1          2.1          3.1          4.1          5.1          6.1          7.1          8.1          9.1         10.1
    -20.657100   -20.654608   -20.571919   -11.464231    -1.533475    -1.479868    -1.358855    -0.803327    -0.745115    -0.722631

        11.1         12.1         13.1         14.1         15.1         16.1         17.1         18.1
     -0.717290    -0.715138    -0.591241    -0.546704    -0.546625    -0.514762     0.027497     0.045488


 **********************************************************************************************************************************
 DATASETS  * FILE   NREC   LENGTH (MB)   RECORD NAMES
              1      18        4.62       500      610      700      900      950      970     1000      129      960     1100   
                                          VAR    BASINP    GEOM    SYMINP    ZMAT    AOBASIS   BASIS     P2S    ABASIS      S 
                                         1400     1410     1200     1210     1080     1600     1650     1700   
                                           T        V       H0       H01     AOSYM     SMH    MOLCAS    OPER   

              2       3        1.44       700     1000     2100   
                                         GEOM     BASIS     RHF  

 PROGRAMS   *        TOTAL        HF       INT
 CPU TIMES  *        22.82     11.70     11.05
 REAL TIME  *        24.94 SEC
 DISK USED  *         3.59 GB      
 SF USED    *         0.21 MB      
 GA USED    *         0.00 MB       (max)       0.00 MB       (current)
 **********************************************************************************************************************************


1PROGRAM * CCSD (Closed-shell coupled cluster)     Authors: C. Hampel, H.-J. Werner, 1991, M. Deegan, P.J. Knowles, 1992

                                  CCSD-F12 implementation by  H.-J. Werner, 2007

                   Density fitting integral evaluation by F.R. Manby, 2003,2007, G. Knizia, 2010

 Basis set CC-PVTZ/JKFIT generated.      Number of basis functions:   376 
 Basis set AUG-CC-PVTZ/MP2FIT generated. Number of basis functions:   516 

 Convergence thresholds:  THRVAR = 1.00D-08  THRDEN = 1.00D-06

 CCSD(T)     terms to be evaluated (factor= 1.000)


 Number of core orbitals:           4 (   4 )
 Number of closed-shell orbitals:  12 (  12 )
 Number of external orbitals:     214 ( 214 )

 Molecular orbitals read from record     2100.2  Type=RHF/CANONICAL (state 1.1)

 MP2-F12 correlation treatment (H.-J. Werner, 2006)
 --------------------------------------------------

 Using MP2-F12 with ansatz 3C(FIX)

 Using projected zeroth-order Hamiltonian (+Z)

 FOCKRIB=T FOCKRIC=T FOCKRIP=T CABSP=T CABSA=T CABSK=T CABSF=T GBC=F EBC=F DMAT=T NOFIK=T NOPAO=1 SOLVE=-1  USEPAO=0
 EXCH_A= T EXCH_B= F EXCH_C= F EXCH_P= F
 
 Geminal basis:    OPTFULL  GEM_TYPE=SLATER  BETA=1.0  NGEM=6

 Optimizing Gaussian exponents for each gem_beta

 Geminal optimization for beta= 1.0000
 Weight function:   m=0, omega= 1.4646

 Augmented Hessian optimization of geminal fit. Trust ratio= 0.40000
 Convergence reached after   2 iterations. Final gradient= 8.24D-16, Step= 4.32D-06, Delta= 1.28D-09
 
 Alpha:                 0.19532     0.81920     2.85917     9.50073    35.69989   197.79328
 Coeff:                 0.27070     0.30552     0.18297     0.10986     0.06810     0.04224
 

 All pairs explicitly correlated. Number of r12-pairs:           78
 
 AO(A)-basis ORBITAL           loaded. Number of functions:     230
 RI(R)-basis CC-PVTZ/JKFIT     loaded. Number of functions:     376
 DF-basis CC-PVTZ/JKFIT        loaded. Number of functions:     376

 Screening thresholds:   THRAO=  1.00D-10  THRMO=  1.00D-09  THRPROD=  1.00D-09
                         THRSW=  1.00D-05  THROV=  1.00D-12  THRF12=   1.00D-08

 CPU time for Fock operators                      0.95 sec
 
 Construction of ABS:
 Smallest eigenvalue of S          2.54E-04  (threshold= 1.00E-08)
 Ratio eigmin/eigmax               1.81E-06  (threshold= 1.00E-09)
 Smallest eigenvalue of S kept     2.54E-04  (threshold= 2.54E-04, 0 functions deleted, 376 kept)
 
 Construction of CABS:
 Smallest eigenvalue of S          2.26E-08  (threshold= 1.00E-08)
 Ratio eigmin/eigmax               2.26E-08  (threshold= 1.00E-09)
 Smallest eigenvalue of S kept     2.26E-08  (threshold= 2.26E-08, 0 functions deleted, 376 kept)
 
 CPU time for CABS singles                        0.16 sec

 CABS-singles contribution of  -0.01592152 patched into reference energy.
 New reference energy        -263.78335299
 
 AO(A)-basis ORBITAL           loaded. Number of functions:     230
 RI(R)-basis CC-PVTZ/JKFIT     loaded. Number of functions:     376
 DF-basis AUG-CC-PVTZ/MP2FIT   loaded. Number of functions:     516

 Screening thresholds:   THRAO=  1.00D-10  THRMO=  1.00D-09  THRPROD=  1.00D-09
                         THRSW=  1.00D-05  THROV=  1.00D-12  THRF12=   1.00D-08

 CPU time for 3-index integral evaluation         2.72 sec
 CPU time for first  half transformation          0.33 sec ( 8937.9 MFLOP/sec)
 CPU time for second half transformation          0.04 sec ( 2903.5 MFLOP/sec)
 CPU time for sorting                             0.17 sec
 CPU time for fitting                             0.06 sec (23217.5 MFLOP/sec)
 CPU time for tilde quantities                    0.06 sec (30956.7 MFLOP/sec)
 CPU time for assembly                            0.80 sec (29298.1 MFLOP/sec)
 CPU time for tranop_f12                          0.89 sec (33815.2 MFLOP/sec)
 CPU time for f12 integrals (total)               7.17 sec
 F12-matrices built in  3 passes.
 F12-matrices built in  3 passes.
 F12-matrices built in  3 passes.
 F12-matrices built in  3 passes.
 FC-matrix built in  3 passes.
 CPU time for f12 matrices (total)                0.45 sec

 Diagonal F12 approximation with fixed coefficients:  TSING= 0.500,  TTRIP= 0.250 (scaled by -1/beta)

 DF-MP2-F12 energy corrections:
 ------------------------------
 Approx.                                    Singlet             Triplet             Total
 DF-MP2-F12/3*C(DX,FIX)                -0.097325402366     -0.016924831774     -0.114250234140
 DF-MP2-F12/3*C(FIX)                   -0.079742271254     -0.013392184399     -0.093134455653
 DF-MP2-F12/3C(FIX)                    -0.080110158365     -0.013421556416     -0.093531714782

 DF-MP2-F12 correlation energies:
 --------------------------------
 Approx.                                    Singlet             Triplet             Ecorr            Total Energy
 DF-MP2                                -0.538303886878     -0.343813840052     -0.882117726930   -264.665470719417
 DF-MP2-F12/3*C(DX,FIX)                -0.635629289244     -0.360738671826     -0.996367961070   -264.779720953557
 DF-MP2-F12/3*C(FIX)                   -0.618046158132     -0.357206024451     -0.975252182583   -264.758605175069
 DF-MP2-F12/3C(FIX)                    -0.618414045243     -0.357235396468     -0.975649441712   -264.759002434198

 SCS-DF-MP2 energies (F_SING= 1.20000  F_TRIP= 0.62222  F_PARALLEL= 0.33333):
 ----------------------------------------------------------------------------
 SCS-DF-MP2                            -0.859893275842   -264.643246268328
 SCS-DF-MP2-F12/3*C(DX,FIX)            -0.987214765118   -264.770567757604
 SCS-DF-MP2-F12/3*C(FIX)               -0.963916916083   -264.747269908570
 SCS-DF-MP2-F12/3C(FIX)                -0.964376656539   -264.747729649026
 Symmetry transformation completed.

 Number of N-1 electron functions:              12
 Number of N-2 electron functions:              78
 Number of singly external CSFs:              2568
 Number of doubly external CSFs:           3298596
 Total number of CSFs:                     3301165

 Pair and operator lists are different

 Length of J-op  integral file:             474.22 MB
 Length of K-op  integral file:             572.29 MB
 Length of 3-ext integral record:             0.00 MB

 For full I/O caching in triples, increase memory by 50.81 Mwords to 151.09 Mwords.

 Integral transformation finished. Total CPU:  14.75 sec, npass=  1  Memory used:  87.46 MW

 Reference energy:                   -263.78335299

 Adding F12 terms to K(Cij), methodcc=6,  factor=1.0

 ITER.      SQ.NORM     CORR.ENERGY   TOTAL ENERGY   ENERGY CHANGE        DEN1      VAR(S)    VAR(P)  DIIS     TIME
   1      1.20255952    -0.86389200  -264.64724500     0.01824030     0.04703851  0.73D-02  0.56D-02  1  1    33.20
   2      1.21697796    -0.85962485  -264.64297784     0.00426715    -0.02028512  0.86D-04  0.59D-03  2  2    42.72
   3      1.22234527    -0.85972033  -264.64307332    -0.00009548    -0.00234276  0.13D-03  0.33D-04  3  3    51.72
   4      1.22518019    -0.85959025  -264.64294324     0.00013008    -0.00142065  0.76D-05  0.42D-05  4  4    60.71
   5      1.22622391    -0.85955166  -264.64290466     0.00003859    -0.00036955  0.56D-06  0.29D-06  5  5    69.89
   6      1.22638653    -0.85952493  -264.64287792     0.00002674    -0.00000674  0.42D-07  0.25D-07  6  6    79.06
   7      1.22641589    -0.85952251  -264.64287550     0.00000242    -0.00000593  0.30D-08  0.42D-08  6  4    88.22
   8      1.22641637    -0.85952201  -264.64287500     0.00000050     0.00000196  0.43D-09  0.30D-09  6  1    97.45
   9      1.22641693    -0.85952208  -264.64287507    -0.00000007     0.00000061  0.34D-10  0.25D-10  6  2   106.65

 Norm of t1 vector:      0.10639256      S-energy:     0.00000170      T1 diagnostic:  0.01535644
                                                                       D1 diagnostic:  0.04508842

 Adding energy correction from Wij-K(Fij), methodcc=6  factor=1.0
 
  CCSD correlation energy              -0.859522075288
  MP2-F12 correction (uncoupled)       -0.092365904069
  C*T doubles correction               -0.001478062469
  f12b correction                       0.015400861539


 Total CPU time for triples:    210.75 sec


 RESULTS
 =======

  Reference energy                   -263.767431475924
  F12 singles correction               -0.015921516563

 F12 singles corrections added to reference energy

  New reference energy               -263.783352992487

  F12a singlet correction              -0.080308095965
  F12a triplet correction              -0.013535870573
  F12a total correction                -0.093843966538

 F12a corrections for ansatz F12/3C(FIX) added to CCSD energy
 
  CCSD-F12a singlet pair energy        -0.642264970276
  CCSD-F12a triplet pair energy        -0.311102769521
  CCSD-F12a correlation energy         -0.953366041826

  Triples (T) contribution             -0.037847474385
  Total correlation energy             -0.991213516211

  CCSD-F12a total energy             -264.736719034313
  CCSD[T]-F12a energy                -264.777132646491
  CCSD-T-F12a energy                 -264.773621285729
 !CCSD(T)-F12a total energy          -264.774566508698

 F12b corrections for ansatz F12/3C(FIX) added to CCSD(T)-F12a energy

  CCSD-F12b singlet pair energy        -0.628088031560
  CCSD-F12b triplet pair energy        -0.309878846699
  CCSD-F12b correlation energy         -0.937965180287

  Triples (T) contribution             -0.037847474385
  Total correlation energy             -0.975812654672

  CCSD-F12b total energy             -264.721318172774
  CCSD[T]-F12b energy                -264.761731784952
  CCSD-T-F12b energy                 -264.758220424191
 !CCSD(T)-F12b total energy          -264.759165647159

 Timing summary (sec):

 STEP                 CPU(USER)    SYS     CPU(TOT)    WALL
 Transformation         14.85      1.31     16.16     16.16
 CCSD iterations        82.59      3.30     85.89     85.87
 Triples               210.75      2.16    212.91    212.86
 MP2-F12                 9.24      1.17     10.41     10.41
 F12b energy             6.39      0.09      6.48      6.48

 Program statistics:

 Available memory in ccsd:                99998934
 Min. memory needed in ccsd:               8644845
 Max. memory used in ccsd:                11598633
 Max. memory used in cckext:               8768967 (10 integral passes)



 **********************************************************************************************************************************
 DATASETS  * FILE   NREC   LENGTH (MB)   RECORD NAMES
              1      20      527.84       500      610      700      900      950      970     1000      129      960     1100   
                                          VAR    BASINP    GEOM    SYMINP    ZMAT    AOBASIS   BASIS     P2S    ABASIS      S 
                                         1400     1410     1200     1210     1080     1600     1650     1700      960(1)  1380   
                                           T        V       H0       H01     AOSYM     SMH    MOLCAS    OPER    ABASIS    JKOP   

              2       5        2.50       700     1000     2100     7360     7350   
                                         GEOM     BASIS     RHF    F12ABS    EF12   

 PROGRAMS   *        TOTAL   CCSD(T)        HF       INT
 CPU TIMES  *       346.84    324.02     11.70     11.05
 REAL TIME  *       357.09 SEC
 DISK USED  *         4.46 GB      
 SF USED    *         1.91 GB      
 GA USED    *         2.40 MB       (max)       0.00 MB       (current)
 **********************************************************************************************************************************

     CCSD(T)-F12        HF-SCF  
   -264.75916565   -263.76743148
 **********************************************************************************************************************************
 Variable memory released
