
 Primary working directories    : /scratch/kee
 Secondary working directories  : /scratch/kee
 Wavefunction directory         : /home/kee/wfu/
 Main file repository           : /scratch/kee/

 ARCHNAME  : Linux/x86_64
 FC        : /opt/intel/composer_xe_2015.0.090/bin/intel64/ifort
 FCVERSION : 15.0.0
 BLASLIB   : -L/opt/intel/mkl/lib/intel64 -lmkl_intel_ilp64 -lmkl_sequential -lmkl_core
 id        : emory

 Nodes     nprocs
 node25       3
 Number of processes for MPI-2 version of Molpro:   nprocs(total)=    4   nprocs(compute)=    3   nprocs(helper)=    1
 ga_uses_ma=false, calling ma_init with nominal heap.
 GA-space will be limited to   8.0 MW (determined by -G option)

 Using customized tuning parameters: mindgm=7; mindgv=32; mindgc=1; mindgr=1; noblas=0; mincuda=1000; minvec=7
 default implementation of scratch files=sf  

 ***,co2h2o
 memory,100,m
 basis avtz
 geomtype = xyz
 geometry = {
 6
       0.00000777
 O    10.97257393   -1.10347931    0.00000000
 O    11.76744404    1.08065151   -0.00000000
 O     7.39356282    0.00000000    0.00000000
 H     6.64556774    0.58340495    0.10287003
 H     8.14598802    0.58686026    0.10347930
 C    11.34356282    0.00000000    0.00000000
 }
 hf
 ccsd(t)-f12
 ---

 Variables initialized (665), CPU time= 0.00 sec
 Commands  initialized (462), CPU time= 0.00 sec, 486 directives.
 Default parameters read. Elapsed time= 0.04 sec

 Checking input...
 Passed
1


                                         ***  PROGRAM SYSTEM MOLPRO  ***
                         Copyright, University College Cardiff Consultants Limited, 2008

                                    Version 2010.1 linked 9 Dec 2014 15:06:28 


 **********************************************************************************************************************************
 LABEL *   co2h2o                                                                        
 Linux-2.6.32-504.el6.x86_64/node25(x86_64) 64 bit mpp version                           DATE: 18-Jan-17          TIME: 21:48:33  
 **********************************************************************************************************************************

 Patch level:      19
 **********************************************************************************************************************************

 Variable memory set to  100000000 words,  buffer space   230000 words

 SETTING BASIS          =    AVTZ
 SETTING GEOMTYPE       =    XYZ

Geometry recognized as XYZ



 Recomputing integrals since basis changed


 Using spherical harmonics

 Library entry O      S aug-cc-pVTZ          selected for orbital group  1
 Library entry O      P aug-cc-pVTZ          selected for orbital group  1
 Library entry O      D aug-cc-pVTZ          selected for orbital group  1
 Library entry O      F aug-cc-pVTZ          selected for orbital group  1
 Library entry H      S aug-cc-pVTZ          selected for orbital group  2
 Library entry H      P aug-cc-pVTZ          selected for orbital group  2
 Library entry H      D aug-cc-pVTZ          selected for orbital group  2
 Library entry C      S aug-cc-pVTZ          selected for orbital group  3
 Library entry C      P aug-cc-pVTZ          selected for orbital group  3
 Library entry C      D aug-cc-pVTZ          selected for orbital group  3
 Library entry C      F aug-cc-pVTZ          selected for orbital group  3

1PROGRAM * SEWARD (Integral evaluation for generally contracted gaussian basis sets)     Author: Roland Lindh, 1990

 Geometry written to block  1 of record 700


 Point group  C1  



 ATOMIC COORDINATES

 NR  ATOM    CHARGE       X              Y              Z

   1  O       8.00   20.735159684   -2.085273688    0.000000000
   2  O       8.00   22.237246502    2.042135397    0.000000000
   3  O       8.00   13.971808865    0.000000000    0.000000000
   4  H       1.00   12.558303016    1.102475579    0.194396184
   5  H       1.00   15.393686428    1.109005169    0.195547537
   6  C       6.00   21.436227084    0.000000000    0.000000000

 Bond lengths in Bohr (Angstrom)

 1-6  2.199968602  2-6  2.193615529  3-4  1.803119814  3-5  1.813799081
     (1.164173245)     (1.160811343)     (0.954169911)     (0.959821135)

 Bond angles

  1-6-2  177.16520951   4-3-5  103.24222917

 NUCLEAR CHARGE:                   32
 NUMBER OF PRIMITIVE AOS:         322
 NUMBER OF SYMMETRY AOS:          282
 NUMBER OF CONTRACTIONS:          230   ( 230A   )
 NUMBER OF CORE ORBITALS:           4   (   4A   )
 NUMBER OF VALENCE ORBITALS:       18   (  18A   )


 NUCLEAR REPULSION ENERGY   96.28475604


 Eigenvalues of metric

         1 0.246E-03 0.322E-03 0.341E-03 0.361E-03 0.853E-03 0.870E-03 0.949E-03 0.153E-02


 Contracted 2-electron integrals neglected if value below      1.0D-11
 AO integral compression algorithm  1   Integral accuracy      1.0D-11

     937.165 MB (compressed) written to integral file ( 28.5%)

     Node minimum: 305.136 MB, node maximum: 326.369 MB


 NUMBER OF SORTED TWO-ELECTRON INTEGRALS:  117629820.     BUFFER LENGTH:  32768
 NUMBER OF SEGMENTS:   8  SEGMENT LENGTH:   15997437      RECORD LENGTH: 524288

 Memory used in sort:      16.55 MW

 SORT1 READ   410697961. AND WROTE    72993441. INTEGRALS IN    213 RECORDS. CPU TIME:     4.65 SEC, REAL TIME:     6.17 SEC
 SORT2 READ   219601619. AND WROTE   352862895. INTEGRALS IN   3492 RECORDS. CPU TIME:     1.71 SEC, REAL TIME:     2.31 SEC

 Node minimum:   117612110.  Node maximum:   117629820. integrals

 OPERATOR DM      FOR CENTER  0  COORDINATES:    0.000000    0.000000    0.000000


 **********************************************************************************************************************************
 DATASETS  * FILE   NREC   LENGTH (MB)   RECORD NAMES
              1      18        4.62       500      610      700      900      950      970     1000      129      960     1100   
                                          VAR    BASINP    GEOM    SYMINP    ZMAT    AOBASIS   BASIS     P2S    ABASIS      S 
                                         1400     1410     1200     1210     1080     1600     1650     1700   
                                           T        V       H0       H01     AOSYM     SMH    MOLCAS    OPER   

 PROGRAMS   *        TOTAL       INT
 CPU TIMES  *        10.95     10.89
 REAL TIME  *        13.30 SEC
 DISK USED  *         3.53 GB      
 GA USED    *         0.00 MB       (max)       0.00 MB       (current)
 **********************************************************************************************************************************

1PROGRAM * RHF-SCF (CLOSED SHELL)       Authors: W. Meyer, H.-J. Werner


 NUMBER OF ELECTRONS:      16+   16-    SPACE SYMMETRY=1    SPIN SYMMETRY=Singlet 
 CONVERGENCE THRESHOLDS:    1.00E-05 (Density)    1.00E-07 (Energy)
 MAX. NUMBER OF ITERATIONS:       60
 INTERPOLATION TYPE:            DIIS
 INTERPOLATION STEPS:              2 (START)      1 (STEP)
 LEVEL SHIFTS:                  0.00 (CLOSED)  0.00 (OPEN) 



 Orbital guess generated from atomic densities. Full valence occupancy:   22

 Molecular orbital dump at record        2100.2

 ITERATION    DDIFF          GRAD             ENERGY        2-EL.EN.            DIPOLE MOMENTS         DIIS
    1      0.000D+00      0.000D+00      -263.65608585    387.701188   -0.06488    1.16834    0.19871    0
    2      0.000D+00      0.472D-02      -263.72222975    383.292208   -0.03698    0.59576    0.11103    1
    3      0.757D-02      0.323D-02      -263.76696320    385.819585   -0.04177    0.75792    0.13246    2
    4      0.313D-02      0.303D-03      -263.76746577    385.604930   -0.04419    0.75152    0.13347    3
    5      0.360D-03      0.904D-04      -263.76752630    385.609853   -0.04193    0.75337    0.13247    4
    6      0.137D-03      0.380D-04      -263.76753444    385.623775   -0.04335    0.74973    0.13260    5
    7      0.462D-04      0.104D-04      -263.76753533    385.617250   -0.04279    0.75114    0.13255    6
    8      0.164D-04      0.370D-05      -263.76753542    385.616765   -0.04308    0.75037    0.13253    7
    9      0.485D-05      0.178D-05      -263.76753543    385.617648   -0.04298    0.75070    0.13254    0

 Final occupancy:  16

 !RHF STATE 1.1 Energy               -263.767535430539
 Nuclear energy                        96.28475604
 One-electron energy                 -552.86111556
 Two-electron energy                  192.80882409
 Virial quotient                       -1.00177962
 !RHF STATE 1.1 Dipole moment          -0.04298017     0.75069507     0.13254019
 Dipole moment /Debye                  -0.10923753     1.90795156     0.33686150

 Orbital energies:

         1.1          2.1          3.1          4.1          5.1          6.1          7.1          8.1          9.1         10.1
    -20.657022   -20.654595   -20.571773   -11.464209    -1.533422    -1.479831    -1.358705    -0.803294    -0.745098    -0.722171

        11.1         12.1         13.1         14.1         15.1         16.1         17.1         18.1
     -0.717247    -0.715353    -0.591110    -0.546675    -0.546606    -0.514623     0.027466     0.045424


 **********************************************************************************************************************************
 DATASETS  * FILE   NREC   LENGTH (MB)   RECORD NAMES
              1      18        4.62       500      610      700      900      950      970     1000      129      960     1100   
                                          VAR    BASINP    GEOM    SYMINP    ZMAT    AOBASIS   BASIS     P2S    ABASIS      S 
                                         1400     1410     1200     1210     1080     1600     1650     1700   
                                           T        V       H0       H01     AOSYM     SMH    MOLCAS    OPER   

              2       3        1.44       700     1000     2100   
                                         GEOM     BASIS     RHF  

 PROGRAMS   *        TOTAL        HF       INT
 CPU TIMES  *        22.56     11.61     10.89
 REAL TIME  *        25.36 SEC
 DISK USED  *         3.57 GB      
 SF USED    *         0.21 MB      
 GA USED    *         0.00 MB       (max)       0.00 MB       (current)
 **********************************************************************************************************************************


1PROGRAM * CCSD (Closed-shell coupled cluster)     Authors: C. Hampel, H.-J. Werner, 1991, M. Deegan, P.J. Knowles, 1992

                                  CCSD-F12 implementation by  H.-J. Werner, 2007

                   Density fitting integral evaluation by F.R. Manby, 2003,2007, G. Knizia, 2010

 Basis set CC-PVTZ/JKFIT generated.      Number of basis functions:   376 
 Basis set AUG-CC-PVTZ/MP2FIT generated. Number of basis functions:   516 

 Convergence thresholds:  THRVAR = 1.00D-08  THRDEN = 1.00D-06

 CCSD(T)     terms to be evaluated (factor= 1.000)


 Number of core orbitals:           4 (   4 )
 Number of closed-shell orbitals:  12 (  12 )
 Number of external orbitals:     214 ( 214 )

 Molecular orbitals read from record     2100.2  Type=RHF/CANONICAL (state 1.1)

 MP2-F12 correlation treatment (H.-J. Werner, 2006)
 --------------------------------------------------

 Using MP2-F12 with ansatz 3C(FIX)

 Using projected zeroth-order Hamiltonian (+Z)

 FOCKRIB=T FOCKRIC=T FOCKRIP=T CABSP=T CABSA=T CABSK=T CABSF=T GBC=F EBC=F DMAT=T NOFIK=T NOPAO=1 SOLVE=-1  USEPAO=0
 EXCH_A= T EXCH_B= F EXCH_C= F EXCH_P= F
 
 Geminal basis:    OPTFULL  GEM_TYPE=SLATER  BETA=1.0  NGEM=6

 Optimizing Gaussian exponents for each gem_beta

 Geminal optimization for beta= 1.0000
 Weight function:   m=0, omega= 1.4646

 Augmented Hessian optimization of geminal fit. Trust ratio= 0.40000
 Convergence reached after   2 iterations. Final gradient= 8.24D-16, Step= 4.32D-06, Delta= 1.28D-09
 
 Alpha:                 0.19532     0.81920     2.85917     9.50073    35.69989   197.79328
 Coeff:                 0.27070     0.30552     0.18297     0.10986     0.06810     0.04224
 

 All pairs explicitly correlated. Number of r12-pairs:           78
 
 AO(A)-basis ORBITAL           loaded. Number of functions:     230
 RI(R)-basis CC-PVTZ/JKFIT     loaded. Number of functions:     376
 DF-basis CC-PVTZ/JKFIT        loaded. Number of functions:     376

 Screening thresholds:   THRAO=  1.00D-10  THRMO=  1.00D-09  THRPROD=  1.00D-09
                         THRSW=  1.00D-05  THROV=  1.00D-12  THRF12=   1.00D-08

 CPU time for Fock operators                      0.93 sec
 
 Construction of ABS:
 Smallest eigenvalue of S          2.54E-04  (threshold= 1.00E-08)
 Ratio eigmin/eigmax               1.81E-06  (threshold= 1.00E-09)
 Smallest eigenvalue of S kept     2.54E-04  (threshold= 2.54E-04, 0 functions deleted, 376 kept)
 
 Construction of CABS:
 Smallest eigenvalue of S          2.26E-08  (threshold= 1.00E-08)
 Ratio eigmin/eigmax               2.26E-08  (threshold= 1.00E-09)
 Smallest eigenvalue of S kept     2.26E-08  (threshold= 2.26E-08, 0 functions deleted, 376 kept)
 
 CPU time for CABS singles                        0.15 sec

 CABS-singles contribution of  -0.01592275 patched into reference energy.
 New reference energy        -263.78345818
 
 AO(A)-basis ORBITAL           loaded. Number of functions:     230
 RI(R)-basis CC-PVTZ/JKFIT     loaded. Number of functions:     376
 DF-basis AUG-CC-PVTZ/MP2FIT   loaded. Number of functions:     516

 Screening thresholds:   THRAO=  1.00D-10  THRMO=  1.00D-09  THRPROD=  1.00D-09
                         THRSW=  1.00D-05  THROV=  1.00D-12  THRF12=   1.00D-08

 CPU time for 3-index integral evaluation         2.71 sec
 CPU time for first  half transformation          0.30 sec ( 9968.4 MFLOP/sec)
 CPU time for second half transformation          0.02 sec ( 5228.5 MFLOP/sec)
 CPU time for sorting                             0.17 sec
 CPU time for fitting                             0.07 sec (19900.7 MFLOP/sec)
 CPU time for tilde quantities                    0.07 sec (26412.6 MFLOP/sec)
 CPU time for assembly                            0.74 sec (31926.6 MFLOP/sec)
 CPU time for tranop_f12                          0.85 sec (35185.6 MFLOP/sec)
 CPU time for f12 integrals (total)               7.24 sec
 F12-matrices built in  3 passes.
 F12-matrices built in  3 passes.
 F12-matrices built in  3 passes.
 F12-matrices built in  3 passes.
 FC-matrix built in  3 passes.
 CPU time for f12 matrices (total)                0.49 sec

 Diagonal F12 approximation with fixed coefficients:  TSING= 0.500,  TTRIP= 0.250 (scaled by -1/beta)

 DF-MP2-F12 energy corrections:
 ------------------------------
 Approx.                                    Singlet             Triplet             Total
 DF-MP2-F12/3*C(DX,FIX)                -0.097331674875     -0.016924649183     -0.114256324059
 DF-MP2-F12/3*C(FIX)                   -0.079748332009     -0.013391490735     -0.093139822744
 DF-MP2-F12/3C(FIX)                    -0.080115664522     -0.013420482999     -0.093536147521

 DF-MP2-F12 correlation energies:
 --------------------------------
 Approx.                                    Singlet             Triplet             Ecorr            Total Energy
 DF-MP2                                -0.538271887987     -0.343766467508     -0.882038355495   -264.665496540192
 DF-MP2-F12/3*C(DX,FIX)                -0.635603562863     -0.360691116691     -0.996294679554   -264.779752864251
 DF-MP2-F12/3*C(FIX)                   -0.618020219996     -0.357157958242     -0.975178178239   -264.758636362936
 DF-MP2-F12/3C(FIX)                    -0.618387552510     -0.357186950506     -0.975574503016   -264.759032687713

 SCS-DF-MP2 energies (F_SING= 1.20000  F_TRIP= 0.62222  F_PARALLEL= 0.33333):
 ----------------------------------------------------------------------------
 SCS-DF-MP2                            -0.859825400923   -264.643283585620
 SCS-DF-MP2-F12/3*C(DX,FIX)            -0.987154303599   -264.770612488296
 SCS-DF-MP2-F12/3*C(FIX)               -0.963855882457   -264.747314067155
 SCS-DF-MP2-F12/3C(FIX)                -0.964314721105   -264.747772905802
 Symmetry transformation completed.

 Number of N-1 electron functions:              12
 Number of N-2 electron functions:              78
 Number of singly external CSFs:              2568
 Number of doubly external CSFs:           3298596
 Total number of CSFs:                     3301165

 Pair and operator lists are different

 Length of J-op  integral file:             474.22 MB
 Length of K-op  integral file:             572.29 MB
 Length of 3-ext integral record:             0.00 MB

 For full I/O caching in triples, increase memory by 50.81 Mwords to 151.09 Mwords.

 Integral transformation finished. Total CPU:  12.68 sec, npass=  1  Memory used:  87.46 MW

 Reference energy:                   -263.78345818

 Adding F12 terms to K(Cij), methodcc=6,  factor=1.0

 ITER.      SQ.NORM     CORR.ENERGY   TOTAL ENERGY   ENERGY CHANGE        DEN1      VAR(S)    VAR(P)  DIIS     TIME
   1      1.20253609    -0.86382256  -264.64728074     0.01823047     0.04702050  0.72D-02  0.56D-02  1  1    30.65
   2      1.21694958    -0.85955691  -264.64301510     0.00426564    -0.02027912  0.86D-04  0.59D-03  2  2    40.45
   3      1.22231536    -0.85965240  -264.64311058    -0.00009549    -0.00234281  0.13D-03  0.33D-04  3  3    50.62
   4      1.22514893    -0.85952244  -264.64298063     0.00012996    -0.00142027  0.76D-05  0.42D-05  4  4    60.74
   5      1.22619197    -0.85948389  -264.64294207     0.00003855    -0.00036938  0.56D-06  0.29D-06  5  5    70.83
   6      1.22635446    -0.85945716  -264.64291535     0.00002673    -0.00000675  0.41D-07  0.25D-07  6  6    81.03
   7      1.22638379    -0.85945474  -264.64291293     0.00000242    -0.00000592  0.30D-08  0.42D-08  6  4    91.28
   8      1.22638425    -0.85945424  -264.64291243     0.00000050     0.00000196  0.43D-09  0.30D-09  6  1   101.42
   9      1.22638482    -0.85945431  -264.64291250    -0.00000007     0.00000061  0.34D-10  0.25D-10  6  2   111.62

 Norm of t1 vector:      0.10636886      S-energy:     0.00000168      T1 diagnostic:  0.01535302
                                                                       D1 diagnostic:  0.04508053

 Adding energy correction from Wij-K(Fij), methodcc=6  factor=1.0
 
  CCSD correlation energy              -0.859454312273
  MP2-F12 correction (uncoupled)       -0.092371130218
  C*T doubles correction               -0.001477885037
  f12b correction                       0.015400915557


 Total CPU time for triples:    214.34 sec


 RESULTS
 =======

  Reference energy                   -263.767535430539
  F12 singles correction               -0.015922754158

 F12 singles corrections added to reference energy

  New reference energy               -263.783458184697

  F12a singlet correction              -0.080313958879
  F12a triplet correction              -0.013535056376
  F12a total correction                -0.093849015254

 F12a corrections for ansatz F12/3C(FIX) added to CCSD energy
 
  CCSD-F12a singlet pair energy        -0.642244021260
  CCSD-F12a triplet pair energy        -0.311060984165
  CCSD-F12a correlation energy         -0.953303327527

  Triples (T) contribution             -0.037834681636
  Total correlation energy             -0.991138009163

  CCSD-F12a total energy             -264.736761512225
  CCSD[T]-F12a energy                -264.777161200233
  CCSD-T-F12a energy                 -264.773651343228
 !CCSD(T)-F12a total energy          -264.774596193861

 F12b corrections for ansatz F12/3C(FIX) added to CCSD(T)-F12a energy

  CCSD-F12b singlet pair energy        -0.628066911920
  CCSD-F12b triplet pair energy        -0.309837177948
  CCSD-F12b correlation energy         -0.937902411970

  Triples (T) contribution             -0.037834681636
  Total correlation energy             -0.975737093606

  CCSD-F12b total energy             -264.721360596668
  CCSD[T]-F12b energy                -264.761760284676
  CCSD-T-F12b energy                 -264.758250427671
 !CCSD(T)-F12b total energy          -264.759195278304

 Timing summary (sec):

 STEP                 CPU(USER)    SYS     CPU(TOT)    WALL
 Transformation         12.79      1.05     13.84     13.85
 CCSD iterations        89.54      4.24     93.78     93.73
 Triples               214.34      3.19    217.53    217.48
 MP2-F12                 9.33      1.15     10.48     10.48
 F12b energy             7.14      0.11      7.25      7.26

 Program statistics:

 Available memory in ccsd:                99998934
 Min. memory needed in ccsd:               8644845
 Max. memory used in ccsd:                11598633
 Max. memory used in cckext:               8768967 (10 integral passes)



 **********************************************************************************************************************************
 DATASETS  * FILE   NREC   LENGTH (MB)   RECORD NAMES
              1      20      527.84       500      610      700      900      950      970     1000      129      960     1100   
                                          VAR    BASINP    GEOM    SYMINP    ZMAT    AOBASIS   BASIS     P2S    ABASIS      S 
                                         1400     1410     1200     1210     1080     1600     1650     1700      960(1)  1380   
                                           T        V       H0       H01     AOSYM     SMH    MOLCAS    OPER    ABASIS    JKOP   

              2       5        2.50       700     1000     2100     7360     7350   
                                         GEOM     BASIS     RHF    F12ABS    EF12   

 PROGRAMS   *        TOTAL   CCSD(T)        HF       INT
 CPU TIMES  *       355.72    333.16     11.61     10.89
 REAL TIME  *       368.53 SEC
 DISK USED  *         4.43 GB      
 SF USED    *         1.91 GB      
 GA USED    *         2.40 MB       (max)       0.00 MB       (current)
 **********************************************************************************************************************************

     CCSD(T)-F12        HF-SCF  
   -264.75919528   -263.76753543
 **********************************************************************************************************************************
 Variable memory released
