
 Primary working directories    : /scratch/kee
 Secondary working directories  : /scratch/kee
 Wavefunction directory         : /home/kee/wfu/
 Main file repository           : /scratch/kee/

 ARCHNAME  : Linux/x86_64
 FC        : /opt/intel/composer_xe_2015.0.090/bin/intel64/ifort
 FCVERSION : 15.0.0
 BLASLIB   : -L/opt/intel/mkl/lib/intel64 -lmkl_intel_ilp64 -lmkl_sequential -lmkl_core
 id        : emory

 Nodes     nprocs
 node4        3
 Number of processes for MPI-2 version of Molpro:   nprocs(total)=    4   nprocs(compute)=    3   nprocs(helper)=    1
 ga_uses_ma=false, calling ma_init with nominal heap.
 GA-space will be limited to   8.0 MW (determined by -G option)

 Using customized tuning parameters: mindgm=7; mindgv=32; mindgc=1; mindgr=1; noblas=0; mincuda=1000; minvec=7
 default implementation of scratch files=sf  

 ***,co2h2o
 memory,100,m
 basis avtz
 geomtype = xyz
 geometry = {
 6
       0.00000000
 O     0.00351000    1.16210700    0.00000000
 O     0.00351000   -1.16210700    0.00000000
 O     2.31968000    0.00000000    0.00000000
 H     2.90589800    0.00000000    0.75853100
 H     2.90589800    0.00000000   -0.75853100
 C     0.01968000    0.00000000    0.00000000
 }
 hf
 ccsd(t)-f12
 ---

 Variables initialized (665), CPU time= 0.00 sec
 Commands  initialized (462), CPU time= 0.01 sec, 486 directives.
 Default parameters read. Elapsed time= 0.03 sec

 Checking input...
 Passed
1


                                         ***  PROGRAM SYSTEM MOLPRO  ***
                         Copyright, University College Cardiff Consultants Limited, 2008

                                    Version 2010.1 linked 9 Dec 2014 15:06:28 


 **********************************************************************************************************************************
 LABEL *   co2h2o                                                                        
 Linux-2.6.32-504.el6.x86_64/node4(x86_64) 64 bit mpp version                            DATE: 12-Dec-16          TIME: 14:57:41  
 **********************************************************************************************************************************

 Patch level:      19
 **********************************************************************************************************************************

 Variable memory set to  100000000 words,  buffer space   230000 words

 SETTING BASIS          =    AVTZ
 SETTING GEOMTYPE       =    XYZ

Geometry recognized as XYZ



 Recomputing integrals since basis changed


 Using spherical harmonics

 Library entry O      S aug-cc-pVTZ          selected for orbital group  1
 Library entry O      P aug-cc-pVTZ          selected for orbital group  1
 Library entry O      D aug-cc-pVTZ          selected for orbital group  1
 Library entry O      F aug-cc-pVTZ          selected for orbital group  1
 Library entry H      S aug-cc-pVTZ          selected for orbital group  2
 Library entry H      P aug-cc-pVTZ          selected for orbital group  2
 Library entry H      D aug-cc-pVTZ          selected for orbital group  2
 Library entry C      S aug-cc-pVTZ          selected for orbital group  3
 Library entry C      P aug-cc-pVTZ          selected for orbital group  3
 Library entry C      D aug-cc-pVTZ          selected for orbital group  3
 Library entry C      F aug-cc-pVTZ          selected for orbital group  3

1PROGRAM * SEWARD (Integral evaluation for generally contracted gaussian basis sets)     Author: Roland Lindh, 1990

 Geometry written to block  1 of record 700


 Point group  C2v 



 ATOMIC COORDINATES

 NR  ATOM    CHARGE       X              Y              Z

   1  O       8.00    0.006632939    2.196063965    0.000000000
   2  O       8.00    0.006632939   -2.196063965    0.000000000
   3  O       8.00    4.383559913    0.000000000    0.000000000
   4  H       1.00    5.491351386    0.000000000    1.433415852
   5  H       1.00    5.491351386    0.000000000   -1.433415852
   6  C       6.00    0.037189810    0.000000000    0.000000000

 Bond lengths in Bohr (Angstrom)

 1-6  2.196276545  2-6  2.196276545  3-4  1.811596797  3-5  1.811596797
     (1.162219492)     (1.162219492)     (0.958655737)     (0.958655737)

 Bond angles

  1-6-2  178.40563223   4-3-5  104.60391356

 NUCLEAR CHARGE:                   32
 NUMBER OF PRIMITIVE AOS:         322
 NUMBER OF SYMMETRY AOS:          282
 NUMBER OF CONTRACTIONS:          230   (  84A1  +  59B1  +  54B2  +  33A2  )
 NUMBER OF CORE ORBITALS:           4   (   3A1  +   1B1  +   0B2  +   0A2  )
 NUMBER OF VALENCE ORBITALS:       18   (   8A1  +   5B1  +   4B2  +   1A2  )


 NUCLEAR REPULSION ENERGY  112.03659530


 Eigenvalues of metric

         1 0.134E-03 0.261E-03 0.418E-03 0.827E-03 0.136E-02 0.255E-02 0.285E-02 0.315E-02
         2 0.332E-03 0.767E-03 0.170E-02 0.299E-02 0.378E-02 0.627E-02 0.107E-01 0.185E-01
         3 0.281E-03 0.147E-02 0.297E-02 0.359E-02 0.605E-02 0.666E-02 0.114E-01 0.129E-01
         4 0.346E-02 0.115E-01 0.292E-01 0.332E-01 0.533E-01 0.679E-01 0.929E-01 0.135E+00


 Contracted 2-electron integrals neglected if value below      1.0D-11
 AO integral compression algorithm  1   Integral accuracy      1.0D-11

     431.489 MB (compressed) written to integral file ( 48.3%)

     Node minimum: 132.645 MB, node maximum: 162.529 MB


 NUMBER OF SORTED TWO-ELECTRON INTEGRALS:   29979201.     BUFFER LENGTH:  32768
 NUMBER OF SEGMENTS:   2  SEGMENT LENGTH:   15996954      RECORD LENGTH: 524288

 Memory used in sort:      16.55 MW

 SORT1 READ   111555100. AND WROTE    28669211. INTEGRALS IN     83 RECORDS. CPU TIME:     2.69 SEC, REAL TIME:     3.04 SEC
 SORT2 READ    86026553. AND WROTE    89930217. INTEGRALS IN   1560 RECORDS. CPU TIME:     0.67 SEC, REAL TIME:     0.93 SEC

 Node minimum:    29974277.  Node maximum:    29979201. integrals

 OPERATOR DM      FOR CENTER  0  COORDINATES:    0.000000    0.000000    0.000000


 **********************************************************************************************************************************
 DATASETS  * FILE   NREC   LENGTH (MB)   RECORD NAMES
              1      18        3.23       500      610      700      900      950      970     1000      129      960     1100   
                                          VAR    BASINP    GEOM    SYMINP    ZMAT    AOBASIS   BASIS     P2S    ABASIS      S 
                                         1400     1410     1200     1210     1080     1600     1650     1700   
                                           T        V       H0       H01     AOSYM     SMH    MOLCAS    OPER   

 PROGRAMS   *        TOTAL       INT
 CPU TIMES  *         5.82      5.76
 REAL TIME  *         6.65 SEC
 DISK USED  *         1.46 GB      
 GA USED    *         0.00 MB       (max)       0.00 MB       (current)
 **********************************************************************************************************************************

1PROGRAM * RHF-SCF (CLOSED SHELL)       Authors: W. Meyer, H.-J. Werner


 NUMBER OF ELECTRONS:      16+   16-
 CONVERGENCE THRESHOLDS:    1.00E-05 (Density)    1.00E-07 (Energy)
 MAX. NUMBER OF ITERATIONS:       60
 INTERPOLATION TYPE:            DIIS
 INTERPOLATION STEPS:              2 (START)      1 (STEP)
 LEVEL SHIFTS:                  0.00 (CLOSED)  0.00 (OPEN) 



 Orbital guess generated from atomic densities. Full valence occupancy:   11   6   4   1

 Molecular orbital dump at record        2100.2

 Initial alpha occupancy:   8   5   2   1
 Initial beta  occupancy:   8   5   2   1
 Wave function symmetry:    1

 ITERATION    DDIFF          GRAD             ENERGY        2-EL.EN.            DIPOLE MOMENTS         DIIS
    1      0.000D+00      0.000D+00      -263.65769581    420.902127    1.31726    0.00000    0.00000    0
    2      0.000D+00      0.863D-02      -263.72125094    416.132980    1.03225    0.00000    0.00000    1
    3      0.141D-01      0.568D-02      -263.75922103    418.461685    1.05213    0.00000    0.00000    2
    4      0.560D-02      0.581D-03      -263.75974687    418.343760    1.04574    0.00000    0.00000    3
    5      0.720D-03      0.184D-03      -263.75981117    418.303642    1.03900    0.00000    0.00000    4
    6      0.277D-03      0.729D-04      -263.75981982    418.325382    1.03919    0.00000    0.00000    5
    7      0.910D-04      0.154D-04      -263.75982057    418.317148    1.03873    0.00000    0.00000    6
    8      0.299D-04      0.341D-05      -263.75982062    418.318694    1.03878    0.00000    0.00000    7
    9      0.717D-05      0.120D-05      -263.75982062    418.318365    1.03877    0.00000    0.00000    0

 Final occupancy:   8   5   2   1

 !RHF STATE 1.1 Energy               -263.759820618314
 Nuclear energy                       112.03659530
 One-electron energy                 -584.95559862
 Two-electron energy                  209.15918270
 Virial quotient                       -1.00133170
 !RHF STATE 1.1 Dipole moment           1.03876610     0.00000000     0.00000000
 Dipole moment /Debye                   2.64010715     0.00000000     0.00000000

 Orbital energies:

         1.1          2.1          3.1          4.1          5.1          6.1          7.1          8.1          9.1         10.1
    -20.616658   -20.581437   -11.431430    -1.498856    -1.373990    -0.770993    -0.706428    -0.585847     0.022867     0.068955

         1.2          2.2          3.2          4.2          5.2          6.2          7.2
    -20.616702    -1.445022    -0.712391    -0.546515    -0.499630     0.086581     0.163751

         1.3          2.3          3.3          4.3
     -0.738517    -0.682106     0.044294     0.093885

         1.4          2.4          3.4
     -0.512095     0.170204     0.275617


 **********************************************************************************************************************************
 DATASETS  * FILE   NREC   LENGTH (MB)   RECORD NAMES
              1      18        3.25       500      610      700      900      950      970     1000      129      960     1100   
                                          VAR    BASINP    GEOM    SYMINP    ZMAT    AOBASIS   BASIS     P2S    ABASIS      S 
                                         1400     1410     1200     1210     1080     1600     1650     1700   
                                           T        V       H0       H01     AOSYM     SMH    MOLCAS    OPER   

              2       3        0.67       700     1000     2100   
                                         GEOM     BASIS     RHF  

 PROGRAMS   *        TOTAL        HF       INT
 CPU TIMES  *         7.13      1.31      5.76
 REAL TIME  *         8.11 SEC
 DISK USED  *         1.47 GB      
 SF USED    *         0.06 MB      
 GA USED    *         0.00 MB       (max)       0.00 MB       (current)
 **********************************************************************************************************************************


1PROGRAM * CCSD (Closed-shell coupled cluster)     Authors: C. Hampel, H.-J. Werner, 1991, M. Deegan, P.J. Knowles, 1992

                                  CCSD-F12 implementation by  H.-J. Werner, 2007

                   Density fitting integral evaluation by F.R. Manby, 2003,2007, G. Knizia, 2010

 Basis set CC-PVTZ/JKFIT generated.      Number of basis functions:   376 
 Basis set AUG-CC-PVTZ/MP2FIT generated. Number of basis functions:   516 

 Convergence thresholds:  THRVAR = 1.00D-08  THRDEN = 1.00D-06

 CCSD(T)     terms to be evaluated (factor= 1.000)


 Number of core orbitals:           4 (   3   1   0   0 )
 Number of closed-shell orbitals:  12 (   5   4   2   1 )
 Number of external orbitals:     214 (  76  54  52  32 )

 Molecular orbitals read from record     2100.2  Type=RHF/CANONICAL (state 1.1)

 MP2-F12 correlation treatment (H.-J. Werner, 2006)
 --------------------------------------------------

 Using MP2-F12 with ansatz 3C(FIX)

 Using projected zeroth-order Hamiltonian (+Z)

 FOCKRIB=T FOCKRIC=T FOCKRIP=T CABSP=T CABSA=T CABSK=T CABSF=T GBC=F EBC=F DMAT=T NOFIK=T NOPAO=1 SOLVE=-1  USEPAO=0
 EXCH_A= T EXCH_B= F EXCH_C= F EXCH_P= F
 
 Geminal basis:    OPTFULL  GEM_TYPE=SLATER  BETA=1.0  NGEM=6

 Optimizing Gaussian exponents for each gem_beta

 Geminal optimization for beta= 1.0000
 Weight function:   m=0, omega= 1.4646

 Augmented Hessian optimization of geminal fit. Trust ratio= 0.40000
 Convergence reached after   2 iterations. Final gradient= 8.24D-16, Step= 4.32D-06, Delta= 1.28D-09
 
 Alpha:                 0.19532     0.81920     2.85917     9.50073    35.69989   197.79328
 Coeff:                 0.27070     0.30552     0.18297     0.10986     0.06810     0.04224
 

 Symmetry turned off. Reference energy:       -263.759820618314

 All pairs explicitly correlated. Number of r12-pairs:           78
 
 AO(A)-basis ORBITAL           loaded. Number of functions:     230
 RI(R)-basis CC-PVTZ/JKFIT     loaded. Number of functions:     376
 DF-basis CC-PVTZ/JKFIT        loaded. Number of functions:     376

 Screening thresholds:   THRAO=  1.00D-10  THRMO=  1.00D-09  THRPROD=  1.00D-09
                         THRSW=  1.00D-05  THROV=  1.00D-12  THRF12=   1.00D-08

 CPU time for Fock operators                      1.11 sec
 
 Construction of ABS:
 Smallest eigenvalue of S          2.33E-04  (threshold= 1.00E-08)
 Ratio eigmin/eigmax               1.66E-06  (threshold= 1.00E-09)
 Smallest eigenvalue of S kept     2.33E-04  (threshold= 2.33E-04, 0 functions deleted, 376 kept)
 
 Construction of CABS:
 Smallest eigenvalue of S          2.24E-08  (threshold= 1.00E-08)
 Ratio eigmin/eigmax               2.24E-08  (threshold= 1.00E-09)
 Smallest eigenvalue of S kept     2.24E-08  (threshold= 2.24E-08, 0 functions deleted, 376 kept)
 
 CPU time for CABS singles                        0.18 sec

 CABS-singles contribution of  -0.01594334 patched into reference energy.
 New reference energy        -263.77576396
 
 AO(A)-basis ORBITAL           loaded. Number of functions:     230
 RI(R)-basis CC-PVTZ/JKFIT     loaded. Number of functions:     376
 DF-basis AUG-CC-PVTZ/MP2FIT   loaded. Number of functions:     516

 Screening thresholds:   THRAO=  1.00D-10  THRMO=  1.00D-09  THRPROD=  1.00D-09
                         THRSW=  1.00D-05  THROV=  1.00D-12  THRF12=   1.00D-08

 CPU time for 3-index integral evaluation         3.35 sec
 CPU time for first  half transformation          0.34 sec ( 9244.9 MFLOP/sec)
 CPU time for second half transformation          0.01 sec (11181.3 MFLOP/sec)
 CPU time for sorting                             0.18 sec
 CPU time for fitting                             0.06 sec (23217.5 MFLOP/sec)
 CPU time for tilde quantities                    0.05 sec (36977.6 MFLOP/sec)
 CPU time for assembly                            0.89 sec (26150.6 MFLOP/sec)
 CPU time for tranop_f12                          0.96 sec (31114.6 MFLOP/sec)
 CPU time for f12 integrals (total)               8.19 sec
 F12-matrices built in  3 passes.
 F12-matrices built in  3 passes.
 F12-matrices built in  3 passes.
 F12-matrices built in  3 passes.
 FC-matrix built in  3 passes.
 CPU time for f12 matrices (total)                0.53 sec

 Diagonal F12 approximation with fixed coefficients:  TSING= 0.500,  TTRIP= 0.250 (scaled by -1/beta)

 DF-MP2-F12 energy corrections:
 ------------------------------
 Approx.                                    Singlet             Triplet             Total
 DF-MP2-F12/3*C(DX,FIX)                -0.097490084546     -0.017124109794     -0.114614194340
 DF-MP2-F12/3*C(FIX)                   -0.079841695992     -0.013605117954     -0.093446813946
 DF-MP2-F12/3C(FIX)                    -0.080217906177     -0.013654246428     -0.093872152605

 DF-MP2-F12 correlation energies:
 --------------------------------
 Approx.                                    Singlet             Triplet             Ecorr            Total Energy
 DF-MP2                                -0.538219634577     -0.346828546322     -0.885048180898   -264.660812138829
 DF-MP2-F12/3*C(DX,FIX)                -0.635709719123     -0.363952656115     -0.999662375238   -264.775426333169
 DF-MP2-F12/3*C(FIX)                   -0.618061330569     -0.360433664275     -0.978494994844   -264.754258952775
 DF-MP2-F12/3C(FIX)                    -0.618437540753     -0.360482792750     -0.978920333503   -264.754684291434

 SCS-DF-MP2 energies (F_SING= 1.20000  F_TRIP= 0.62222  F_PARALLEL= 0.33333):
 ----------------------------------------------------------------------------
 SCS-DF-MP2                            -0.861667990314   -264.637431948245
 SCS-DF-MP2-F12/3*C(DX,FIX)            -0.989311093419   -264.765075051350
 SCS-DF-MP2-F12/3*C(FIX)               -0.965943432231   -264.741707390162
 SCS-DF-MP2-F12/3C(FIX)                -0.966425453282   -264.742189411212

 Symmetry restored.
 Symmetry transformation completed.

 Number of N-1 electron functions:              12
 Number of N-2 electron functions:              78
 Number of singly external CSFs:               732
 Number of doubly external CSFs:            836016
 Total number of CSFs:                      836749

 Pair and operator lists are different

 Length of J-op  integral file:             462.26 MB
 Length of K-op  integral file:             502.03 MB
 Length of 3-ext integral record:             0.00 MB

 Memory could be reduced to 38.69 Mwords without degradation in triples

 Integral transformation finished. Total CPU:   1.72 sec, npass=  1  Memory used:   6.07 MW

 Reference energy:                   -263.77576396

 Adding F12 terms to K(Cij), methodcc=6,  factor=1.0

 ITER.      SQ.NORM     CORR.ENERGY   TOTAL ENERGY   ENERGY CHANGE        DEN1      VAR(S)    VAR(P)  DIIS     TIME
   1      1.20184697    -0.86662623  -264.64239019     0.01843080     0.04697892  0.73D-02  0.55D-02  1  1    13.21
   2      1.21619737    -0.86247260  -264.63823655     0.00415364    -0.02022108  0.92D-04  0.59D-03  2  2    14.29
   3      1.22158439    -0.86260221  -264.63836617    -0.00012961    -0.00229960  0.14D-03  0.31D-04  3  3    15.37
   4      1.22444927    -0.86246943  -264.63823338     0.00013278    -0.00142021  0.86D-05  0.41D-05  4  4    16.46
   5      1.22552538    -0.86243297  -264.63819693     0.00003645    -0.00037054  0.76D-06  0.30D-06  5  5    17.57
   6      1.22570383    -0.86240500  -264.63816896     0.00002797    -0.00000794  0.57D-07  0.29D-07  6  6    18.66
   7      1.22574057    -0.86240203  -264.63816598     0.00000297    -0.00000701  0.66D-08  0.43D-08  6  2    19.77
   8      1.22574218    -0.86240170  -264.63816565     0.00000033     0.00000200  0.63D-09  0.39D-09  6  1    20.88
   9      1.22574288    -0.86240182  -264.63816577    -0.00000012     0.00000077  0.79D-10  0.34D-10  6  4    22.01

 Norm of t1 vector:      0.10778302      S-energy:     0.00000006      T1 diagnostic:  0.01555714
                                                                       D1 diagnostic:  0.04764266

 Adding energy correction from Wij-K(Fij), methodcc=6  factor=1.0
 
  CCSD correlation energy              -0.862401815548
  MP2-F12 correction (uncoupled)       -0.092691006562
  C*T doubles correction               -0.001485522931
  f12b correction                       0.015436677551


 Total CPU time for triples:     32.77 sec


 RESULTS
 =======

  Reference energy                   -263.759820618314
  F12 singles correction               -0.015943339617

 F12 singles corrections added to reference energy

  New reference energy               -263.775763957931

  F12a singlet correction              -0.080417733017
  F12a triplet correction              -0.013758796475
  F12a total correction                -0.094176529492

 F12a corrections for ansatz F12/3C(FIX) added to CCSD energy
 
  CCSD-F12a singlet pair energy        -0.641758816278
  CCSD-F12a triplet pair energy        -0.314819592277
  CCSD-F12a correlation energy         -0.956578345041

  Triples (T) contribution             -0.038324497264
  Total correlation energy             -0.994902842305

  CCSD-F12a total energy             -264.732342302971
  CCSD[T]-F12a energy                -264.773231442112
  CCSD-T-F12a energy                 -264.769738926528
 !CCSD(T)-F12a total energy          -264.770666800236

 F12b corrections for ansatz F12/3C(FIX) added to CCSD(T)-F12a energy

  CCSD-F12b singlet pair energy        -0.627571131905
  CCSD-F12b triplet pair energy        -0.313570599100
  CCSD-F12b correlation energy         -0.941141667489

  Triples (T) contribution             -0.038324497264
  Total correlation energy             -0.979466164754

  CCSD-F12b total energy             -264.716905625420
  CCSD[T]-F12b energy                -264.757794764561
  CCSD-T-F12b energy                 -264.754302248977
 !CCSD(T)-F12b total energy          -264.755230122685

 Timing summary (sec):

 STEP                 CPU(USER)    SYS     CPU(TOT)    WALL
 Transformation          1.73      0.29      2.02      2.13
 CCSD iterations         9.86      0.93     10.79     11.38
 Triples                32.77      0.81     33.58     33.89
 MP2-F12                10.44      1.12     11.56     11.75
 F12b energy             0.63      0.03      0.66      0.66

 Program statistics:

 Available memory in ccsd:                99998934
 Min. memory needed in ccsd:               2244783
 Max. memory used in ccsd:                 3005571
 Max. memory used in cckext:               2769663 (10 integral passes)



 **********************************************************************************************************************************
 DATASETS  * FILE   NREC   LENGTH (MB)   RECORD NAMES
              1      20      137.19       500      610      700      900      950      970     1000      129      960     1100   
                                          VAR    BASINP    GEOM    SYMINP    ZMAT    AOBASIS   BASIS     P2S    ABASIS      S 
                                         1400     1410     1200     1210     1080     1600     1650     1700      960(1)  1380   
                                           T        V       H0       H01     AOSYM     SMH    MOLCAS    OPER    ABASIS    JKOP   

              2       5        0.97       700     1000     2100     7360     7350   
                                         GEOM     BASIS     RHF    F12ABS    EF12   

 PROGRAMS   *        TOTAL   CCSD(T)        HF       INT
 CPU TIMES  *        62.76     55.63      1.31      5.76
 REAL TIME  *        68.18 SEC
 DISK USED  *         1.70 GB      
 SF USED    *         1.34 GB      
 GA USED    *         2.40 MB       (max)       0.00 MB       (current)
 **********************************************************************************************************************************

     CCSD(T)-F12        HF-SCF  
   -264.75523012   -263.75982062
 **********************************************************************************************************************************
 Variable memory released
