
 Primary working directories    : /scratch/kee
 Secondary working directories  : /scratch/kee
 Wavefunction directory         : /home/kee/wfu/
 Main file repository           : /scratch/kee/

 ARCHNAME  : Linux/x86_64
 FC        : /opt/intel/composer_xe_2015.0.090/bin/intel64/ifort
 FCVERSION : 15.0.0
 BLASLIB   : -L/opt/intel/mkl/lib/intel64 -lmkl_intel_ilp64 -lmkl_sequential -lmkl_core
 id        : emory

 Nodes     nprocs
 node4        3
 Number of processes for MPI-2 version of Molpro:   nprocs(total)=    4   nprocs(compute)=    3   nprocs(helper)=    1
 ga_uses_ma=false, calling ma_init with nominal heap.
 GA-space will be limited to   8.0 MW (determined by -G option)

 Using customized tuning parameters: mindgm=7; mindgv=32; mindgc=1; mindgr=1; noblas=0; mincuda=1000; minvec=7
 default implementation of scratch files=sf  

 ***,co2h2o
 memory,100,m
 basis avtz
 geomtype = xyz
 geometry = {
 6
       0.00000000
 O     0.00351000    1.16210700    0.00000000
 O     0.00351000   -1.16210700    0.00000000
 O     2.16968000    0.00000000    0.00000000
 H     2.75589800    0.00000000    0.75853100
 H     2.75589800    0.00000000   -0.75853100
 C     0.01968000    0.00000000    0.00000000
 }
 hf
 ccsd(t)-f12
 ---

 Variables initialized (665), CPU time= 0.00 sec
 Commands  initialized (462), CPU time= 0.01 sec, 486 directives.
 Default parameters read. Elapsed time= 0.03 sec

 Checking input...
 Passed
1


                                         ***  PROGRAM SYSTEM MOLPRO  ***
                         Copyright, University College Cardiff Consultants Limited, 2008

                                    Version 2010.1 linked 9 Dec 2014 15:06:28 


 **********************************************************************************************************************************
 LABEL *   co2h2o                                                                        
 Linux-2.6.32-504.el6.x86_64/node4(x86_64) 64 bit mpp version                            DATE: 12-Dec-16          TIME: 14:54:29  
 **********************************************************************************************************************************

 Patch level:      19
 **********************************************************************************************************************************

 Variable memory set to  100000000 words,  buffer space   230000 words

 SETTING BASIS          =    AVTZ
 SETTING GEOMTYPE       =    XYZ

Geometry recognized as XYZ



 Recomputing integrals since basis changed


 Using spherical harmonics

 Library entry O      S aug-cc-pVTZ          selected for orbital group  1
 Library entry O      P aug-cc-pVTZ          selected for orbital group  1
 Library entry O      D aug-cc-pVTZ          selected for orbital group  1
 Library entry O      F aug-cc-pVTZ          selected for orbital group  1
 Library entry H      S aug-cc-pVTZ          selected for orbital group  2
 Library entry H      P aug-cc-pVTZ          selected for orbital group  2
 Library entry H      D aug-cc-pVTZ          selected for orbital group  2
 Library entry C      S aug-cc-pVTZ          selected for orbital group  3
 Library entry C      P aug-cc-pVTZ          selected for orbital group  3
 Library entry C      D aug-cc-pVTZ          selected for orbital group  3
 Library entry C      F aug-cc-pVTZ          selected for orbital group  3

1PROGRAM * SEWARD (Integral evaluation for generally contracted gaussian basis sets)     Author: Roland Lindh, 1990

 Geometry written to block  1 of record 700


 Point group  C2v 



 ATOMIC COORDINATES

 NR  ATOM    CHARGE       X              Y              Z

   1  O       8.00    0.006632939    2.196063965    0.000000000
   2  O       8.00    0.006632939   -2.196063965    0.000000000
   3  O       8.00    4.100100993    0.000000000    0.000000000
   4  H       1.00    5.207892466    0.000000000    1.433415852
   5  H       1.00    5.207892466    0.000000000   -1.433415852
   6  C       6.00    0.037189810    0.000000000    0.000000000

 Bond lengths in Bohr (Angstrom)

 1-6  2.196276545  2-6  2.196276545  3-4  1.811596797  3-5  1.811596797
     (1.162219492)     (1.162219492)     (0.958655737)     (0.958655737)

 Bond angles

  1-6-2  178.40563223   4-3-5  104.60391356

 NUCLEAR CHARGE:                   32
 NUMBER OF PRIMITIVE AOS:         322
 NUMBER OF SYMMETRY AOS:          282
 NUMBER OF CONTRACTIONS:          230   (  84A1  +  59B1  +  54B2  +  33A2  )
 NUMBER OF CORE ORBITALS:           4   (   3A1  +   1B1  +   0B2  +   0A2  )
 NUMBER OF VALENCE ORBITALS:       18   (   8A1  +   5B1  +   4B2  +   1A2  )


 NUCLEAR REPULSION ENERGY  114.56135720


 Eigenvalues of metric

         1 0.108E-03 0.246E-03 0.346E-03 0.792E-03 0.123E-02 0.221E-02 0.276E-02 0.311E-02
         2 0.330E-03 0.746E-03 0.169E-02 0.287E-02 0.354E-02 0.613E-02 0.982E-02 0.174E-01
         3 0.272E-03 0.144E-02 0.290E-02 0.351E-02 0.598E-02 0.632E-02 0.111E-01 0.125E-01
         4 0.346E-02 0.112E-01 0.291E-01 0.320E-01 0.528E-01 0.669E-01 0.890E-01 0.134E+00


 Contracted 2-electron integrals neglected if value below      1.0D-11
 AO integral compression algorithm  1   Integral accuracy      1.0D-11

     439.878 MB (compressed) written to integral file ( 49.3%)

     Node minimum: 140.509 MB, node maximum: 156.762 MB


 NUMBER OF SORTED TWO-ELECTRON INTEGRALS:   29979201.     BUFFER LENGTH:  32768
 NUMBER OF SEGMENTS:   2  SEGMENT LENGTH:   15996954      RECORD LENGTH: 524288

 Memory used in sort:      16.55 MW

 SORT1 READ   111555100. AND WROTE    28979108. INTEGRALS IN     84 RECORDS. CPU TIME:     2.65 SEC, REAL TIME:     3.02 SEC
 SORT2 READ    86955707. AND WROTE    89930217. INTEGRALS IN   1794 RECORDS. CPU TIME:     0.69 SEC, REAL TIME:     0.96 SEC

 Node minimum:    29974277.  Node maximum:    29979201. integrals

 OPERATOR DM      FOR CENTER  0  COORDINATES:    0.000000    0.000000    0.000000


 **********************************************************************************************************************************
 DATASETS  * FILE   NREC   LENGTH (MB)   RECORD NAMES
              1      18        3.23       500      610      700      900      950      970     1000      129      960     1100   
                                          VAR    BASINP    GEOM    SYMINP    ZMAT    AOBASIS   BASIS     P2S    ABASIS      S 
                                         1400     1410     1200     1210     1080     1600     1650     1700   
                                           T        V       H0       H01     AOSYM     SMH    MOLCAS    OPER   

 PROGRAMS   *        TOTAL       INT
 CPU TIMES  *         6.09      6.03
 REAL TIME  *         6.98 SEC
 DISK USED  *         1.47 GB      
 GA USED    *         0.00 MB       (max)       0.00 MB       (current)
 **********************************************************************************************************************************

1PROGRAM * RHF-SCF (CLOSED SHELL)       Authors: W. Meyer, H.-J. Werner


 NUMBER OF ELECTRONS:      16+   16-
 CONVERGENCE THRESHOLDS:    1.00E-05 (Density)    1.00E-07 (Energy)
 MAX. NUMBER OF ITERATIONS:       60
 INTERPOLATION TYPE:            DIIS
 INTERPOLATION STEPS:              2 (START)      1 (STEP)
 LEVEL SHIFTS:                  0.00 (CLOSED)  0.00 (OPEN) 



 Orbital guess generated from atomic densities. Full valence occupancy:   11   6   4   1

 Molecular orbital dump at record        2100.2

 Initial alpha occupancy:   8   5   2   1
 Initial beta  occupancy:   8   5   2   1
 Wave function symmetry:    1

 ITERATION    DDIFF          GRAD             ENERGY        2-EL.EN.            DIPOLE MOMENTS         DIIS
    1      0.000D+00      0.000D+00      -263.64772665    426.100680    1.37923    0.00000    0.00000    0
    2      0.000D+00      0.864D-02      -263.71163318    421.299203    1.10715    0.00000    0.00000    1
    3      0.141D-01      0.566D-02      -263.74926190    423.564575    1.10854    0.00000    0.00000    2
    4      0.558D-02      0.586D-03      -263.74980701    423.478969    1.09951    0.00000    0.00000    3
    5      0.734D-03      0.192D-03      -263.74987547    423.426131    1.09188    0.00000    0.00000    4
    6      0.285D-03      0.739D-04      -263.74988455    423.449431    1.09173    0.00000    0.00000    5
    7      0.928D-04      0.151D-04      -263.74988531    423.441486    1.09121    0.00000    0.00000    6
    8      0.301D-04      0.332D-05      -263.74988535    423.443075    1.09125    0.00000    0.00000    7
    9      0.696D-05      0.120D-05      -263.74988535    423.442707    1.09124    0.00000    0.00000    0

 Final occupancy:   8   5   2   1

 !RHF STATE 1.1 Energy               -263.749885352719
 Nuclear energy                       114.56135720
 One-electron energy                 -590.03259602
 Two-electron energy                  211.72135347
 Virial quotient                       -1.00101883
 !RHF STATE 1.1 Dipole moment           1.09124229     0.00000000     0.00000000
 Dipole moment /Debye                   2.77347958     0.00000000     0.00000000

 Orbital energies:

         1.1          2.1          3.1          4.1          5.1          6.1          7.1          8.1          9.1         10.1
    -20.610439   -20.583003   -11.428632    -1.496247    -1.378613    -0.768955    -0.716027    -0.575749     0.022026     0.070110

         1.2          2.2          3.2          4.2          5.2          6.2          7.2
    -20.610483    -1.441141    -0.708438    -0.555528    -0.492747     0.086388     0.162386

         1.3          2.3          3.3          4.3
     -0.743850    -0.677574     0.043845     0.094941

         1.4          2.4          3.4
     -0.507521     0.170183     0.277055


 **********************************************************************************************************************************
 DATASETS  * FILE   NREC   LENGTH (MB)   RECORD NAMES
              1      18        3.25       500      610      700      900      950      970     1000      129      960     1100   
                                          VAR    BASINP    GEOM    SYMINP    ZMAT    AOBASIS   BASIS     P2S    ABASIS      S 
                                         1400     1410     1200     1210     1080     1600     1650     1700   
                                           T        V       H0       H01     AOSYM     SMH    MOLCAS    OPER   

              2       3        0.67       700     1000     2100   
                                         GEOM     BASIS     RHF  

 PROGRAMS   *        TOTAL        HF       INT
 CPU TIMES  *         7.42      1.33      6.03
 REAL TIME  *         8.44 SEC
 DISK USED  *         1.49 GB      
 SF USED    *         0.06 MB      
 GA USED    *         0.00 MB       (max)       0.00 MB       (current)
 **********************************************************************************************************************************


1PROGRAM * CCSD (Closed-shell coupled cluster)     Authors: C. Hampel, H.-J. Werner, 1991, M. Deegan, P.J. Knowles, 1992

                                  CCSD-F12 implementation by  H.-J. Werner, 2007

                   Density fitting integral evaluation by F.R. Manby, 2003,2007, G. Knizia, 2010

 Basis set CC-PVTZ/JKFIT generated.      Number of basis functions:   376 
 Basis set AUG-CC-PVTZ/MP2FIT generated. Number of basis functions:   516 

 Convergence thresholds:  THRVAR = 1.00D-08  THRDEN = 1.00D-06

 CCSD(T)     terms to be evaluated (factor= 1.000)


 Number of core orbitals:           4 (   3   1   0   0 )
 Number of closed-shell orbitals:  12 (   5   4   2   1 )
 Number of external orbitals:     214 (  76  54  52  32 )

 Molecular orbitals read from record     2100.2  Type=RHF/CANONICAL (state 1.1)

 MP2-F12 correlation treatment (H.-J. Werner, 2006)
 --------------------------------------------------

 Using MP2-F12 with ansatz 3C(FIX)

 Using projected zeroth-order Hamiltonian (+Z)

 FOCKRIB=T FOCKRIC=T FOCKRIP=T CABSP=T CABSA=T CABSK=T CABSF=T GBC=F EBC=F DMAT=T NOFIK=T NOPAO=1 SOLVE=-1  USEPAO=0
 EXCH_A= T EXCH_B= F EXCH_C= F EXCH_P= F
 
 Geminal basis:    OPTFULL  GEM_TYPE=SLATER  BETA=1.0  NGEM=6

 Optimizing Gaussian exponents for each gem_beta

 Geminal optimization for beta= 1.0000
 Weight function:   m=0, omega= 1.4646

 Augmented Hessian optimization of geminal fit. Trust ratio= 0.40000
 Convergence reached after   2 iterations. Final gradient= 8.24D-16, Step= 4.32D-06, Delta= 1.28D-09
 
 Alpha:                 0.19532     0.81920     2.85917     9.50073    35.69989   197.79328
 Coeff:                 0.27070     0.30552     0.18297     0.10986     0.06810     0.04224
 

 Symmetry turned off. Reference energy:       -263.749885352718

 All pairs explicitly correlated. Number of r12-pairs:           78
 
 AO(A)-basis ORBITAL           loaded. Number of functions:     230
 RI(R)-basis CC-PVTZ/JKFIT     loaded. Number of functions:     376
 DF-basis CC-PVTZ/JKFIT        loaded. Number of functions:     376

 Screening thresholds:   THRAO=  1.00D-10  THRMO=  1.00D-09  THRPROD=  1.00D-09
                         THRSW=  1.00D-05  THROV=  1.00D-12  THRF12=   1.00D-08

 CPU time for Fock operators                      1.05 sec
 
 Construction of ABS:
 Smallest eigenvalue of S          2.24E-04  (threshold= 1.00E-08)
 Ratio eigmin/eigmax               1.60E-06  (threshold= 1.00E-09)
 Smallest eigenvalue of S kept     2.24E-04  (threshold= 2.24E-04, 0 functions deleted, 376 kept)
 
 Construction of CABS:
 Smallest eigenvalue of S          2.23E-08  (threshold= 1.00E-08)
 Ratio eigmin/eigmax               2.23E-08  (threshold= 1.00E-09)
 Smallest eigenvalue of S kept     2.23E-08  (threshold= 2.23E-08, 0 functions deleted, 376 kept)
 
 CPU time for CABS singles                        0.18 sec

 CABS-singles contribution of  -0.01594554 patched into reference energy.
 New reference energy        -263.76583090
 
 AO(A)-basis ORBITAL           loaded. Number of functions:     230
 RI(R)-basis CC-PVTZ/JKFIT     loaded. Number of functions:     376
 DF-basis AUG-CC-PVTZ/MP2FIT   loaded. Number of functions:     516

 Screening thresholds:   THRAO=  1.00D-10  THRMO=  1.00D-09  THRPROD=  1.00D-09
                         THRSW=  1.00D-05  THROV=  1.00D-12  THRF12=   1.00D-08

 CPU time for 3-index integral evaluation         3.38 sec
 CPU time for first  half transformation          0.31 sec ( 9219.6 MFLOP/sec)
 CPU time for second half transformation          0.03 sec ( 3585.8 MFLOP/sec)
 CPU time for sorting                             0.15 sec
 CPU time for fitting                             0.05 sec (27861.0 MFLOP/sec)
 CPU time for tilde quantities                    0.09 sec (20543.1 MFLOP/sec)
 CPU time for assembly                            0.95 sec (24938.7 MFLOP/sec)
 CPU time for tranop_f12                          0.98 sec (31153.0 MFLOP/sec)
 CPU time for f12 integrals (total)               8.12 sec
 F12-matrices built in  3 passes.
 F12-matrices built in  3 passes.
 F12-matrices built in  3 passes.
 F12-matrices built in  3 passes.
 FC-matrix built in  3 passes.
 CPU time for f12 matrices (total)                0.53 sec

 Diagonal F12 approximation with fixed coefficients:  TSING= 0.500,  TTRIP= 0.250 (scaled by -1/beta)

 DF-MP2-F12 energy corrections:
 ------------------------------
 Approx.                                    Singlet             Triplet             Total
 DF-MP2-F12/3*C(DX,FIX)                -0.097608608911     -0.017201555594     -0.114810164506
 DF-MP2-F12/3*C(FIX)                   -0.079918892585     -0.013677489048     -0.093596381634
 DF-MP2-F12/3C(FIX)                    -0.080295081577     -0.013732835012     -0.094027916589

 DF-MP2-F12 correlation energies:
 --------------------------------
 Approx.                                    Singlet             Triplet             Ecorr            Total Energy
 DF-MP2                                -0.538272468443     -0.347985012366     -0.886257480809   -264.652088378354
 DF-MP2-F12/3*C(DX,FIX)                -0.635881077354     -0.365186567960     -1.001067645314   -264.766898542859
 DF-MP2-F12/3*C(FIX)                   -0.618191361028     -0.361662501414     -0.979853862442   -264.745684759987
 DF-MP2-F12/3C(FIX)                    -0.618567550019     -0.361717847378     -0.980285397398   -264.746116294943

 SCS-DF-MP2 energies (F_SING= 1.20000  F_TRIP= 0.62222  F_PARALLEL= 0.33333):
 ----------------------------------------------------------------------------
 SCS-DF-MP2                            -0.862450969826   -264.628281867371
 SCS-DF-MP2-F12/3*C(DX,FIX)            -0.990284490667   -264.756115388212
 SCS-DF-MP2-F12/3*C(FIX)               -0.966864078558   -264.732694976103
 SCS-DF-MP2-F12/3C(FIX)                -0.967349942836   -264.733180840382

 Symmetry restored.
 Symmetry transformation completed.

 Number of N-1 electron functions:              12
 Number of N-2 electron functions:              78
 Number of singly external CSFs:               732
 Number of doubly external CSFs:            836016
 Total number of CSFs:                      836749

 Pair and operator lists are different

 Length of J-op  integral file:             462.26 MB
 Length of K-op  integral file:             502.03 MB
 Length of 3-ext integral record:             0.00 MB

 Memory could be reduced to 38.69 Mwords without degradation in triples

 Integral transformation finished. Total CPU:   1.49 sec, npass=  1  Memory used:   6.07 MW

 Reference energy:                   -263.76583090

 Adding F12 terms to K(Cij), methodcc=6,  factor=1.0

 ITER.      SQ.NORM     CORR.ENERGY   TOTAL ENERGY   ENERGY CHANGE        DEN1      VAR(S)    VAR(P)  DIIS     TIME
   1      1.20159106    -0.86767576  -264.63350666     0.01858828     0.04710450  0.73D-02  0.55D-02  1  1    12.73
   2      1.21592447    -0.86353632  -264.62936722     0.00413944    -0.02021039  0.95D-04  0.58D-03  2  2    13.75
   3      1.22133679    -0.86367483  -264.62950573    -0.00013850    -0.00229234  0.14D-03  0.31D-04  3  3    14.75
   4      1.22423081    -0.86354091  -264.62937181     0.00013391    -0.00142259  0.92D-05  0.42D-05  4  4    15.78
   5      1.22533664    -0.86350469  -264.62933559     0.00003622    -0.00037502  0.88D-06  0.31D-06  5  5    16.82
   6      1.22552670    -0.86347599  -264.62930688     0.00002870    -0.00000826  0.70D-07  0.33D-07  6  6    17.86
   7      1.22556738    -0.86347292  -264.62930381     0.00000307    -0.00000729  0.94D-08  0.47D-08  6  2    18.91
   8      1.22556985    -0.86347255  -264.62930345     0.00000036     0.00000197  0.84D-09  0.47D-09  6  1    19.95
   9      1.22557062    -0.86347272  -264.62930362    -0.00000016     0.00000086  0.11D-09  0.45D-10  6  4    20.99

 Norm of t1 vector:      0.10852425      S-energy:     0.00000010      T1 diagnostic:  0.01566413
                                                                       D1 diagnostic:  0.04872094

 Adding energy correction from Wij-K(Fij), methodcc=6  factor=1.0
 
  CCSD correlation energy              -0.863472718427
  MP2-F12 correction (uncoupled)       -0.092828457777
  C*T doubles correction               -0.001497494878
  f12b correction                       0.015448211267


 Total CPU time for triples:     25.95 sec


 RESULTS
 =======

  Reference energy                   -263.749885352718
  F12 singles correction               -0.015945544827

 F12 singles corrections added to reference energy

  New reference energy               -263.765830897545

  F12a singlet correction              -0.080493049892
  F12a triplet correction              -0.013832902764
  F12a total correction                -0.094325952656

 F12a corrections for ansatz F12/3C(FIX) added to CCSD energy
 
  CCSD-F12a singlet pair energy        -0.641670607641
  CCSD-F12a triplet pair energy        -0.316128159824
  CCSD-F12a correlation energy         -0.957798671082

  Triples (T) contribution             -0.038473858998
  Total correlation energy             -0.996272530080

  CCSD-F12a total energy             -264.723629568628
  CCSD[T]-F12a energy                -264.764679051711
  CCSD-T-F12a energy                 -264.761178517986
 !CCSD(T)-F12a total energy          -264.762103427625

 F12b corrections for ansatz F12/3C(FIX) added to CCSD(T)-F12a energy

  CCSD-F12b singlet pair energy        -0.627480219135
  CCSD-F12b triplet pair energy        -0.314870337063
  CCSD-F12b correlation energy         -0.942350459815

  Triples (T) contribution             -0.038473858998
  Total correlation energy             -0.980824318813

  CCSD-F12b total energy             -264.708181357361
  CCSD[T]-F12b energy                -264.749230840444
  CCSD-T-F12b energy                 -264.745730306719
 !CCSD(T)-F12b total energy          -264.746655216358

 Timing summary (sec):

 STEP                 CPU(USER)    SYS     CPU(TOT)    WALL
 Transformation          1.50      0.24      1.74      1.73
 CCSD iterations         9.26      0.73      9.99     11.33
 Triples                25.95      0.76     26.71     26.69
 MP2-F12                10.25      1.15     11.40     11.51
 F12b energy             0.63      0.01      0.64      0.65

 Program statistics:

 Available memory in ccsd:                99998934
 Min. memory needed in ccsd:               2244783
 Max. memory used in ccsd:                 3005571
 Max. memory used in cckext:               2769663 (10 integral passes)



 **********************************************************************************************************************************
 DATASETS  * FILE   NREC   LENGTH (MB)   RECORD NAMES
              1      20      137.19       500      610      700      900      950      970     1000      129      960     1100   
                                          VAR    BASINP    GEOM    SYMINP    ZMAT    AOBASIS   BASIS     P2S    ABASIS      S 
                                         1400     1410     1200     1210     1080     1600     1650     1700      960(1)  1380   
                                           T        V       H0       H01     AOSYM     SMH    MOLCAS    OPER    ABASIS    JKOP   

              2       5        0.97       700     1000     2100     7360     7350   
                                         GEOM     BASIS     RHF    F12ABS    EF12   

 PROGRAMS   *        TOTAL   CCSD(T)        HF       INT
 CPU TIMES  *        55.26     47.84      1.33      6.03
 REAL TIME  *        60.61 SEC
 DISK USED  *         1.71 GB      
 SF USED    *         1.34 GB      
 GA USED    *         2.40 MB       (max)       0.00 MB       (current)
 **********************************************************************************************************************************

     CCSD(T)-F12        HF-SCF  
   -264.74665522   -263.74988535
 **********************************************************************************************************************************
 Variable memory released
