
 Primary working directories    : /scratch/kee
 Secondary working directories  : /scratch/kee
 Wavefunction directory         : /home/kee/wfu/
 Main file repository           : /scratch/kee/

 ARCHNAME  : Linux/x86_64
 FC        : /opt/intel/composer_xe_2015.0.090/bin/intel64/ifort
 FCVERSION : 15.0.0
 BLASLIB   : -L/opt/intel/mkl/lib/intel64 -lmkl_intel_ilp64 -lmkl_sequential -lmkl_core
 id        : emory

 Nodes     nprocs
 node4        3
 Number of processes for MPI-2 version of Molpro:   nprocs(total)=    4   nprocs(compute)=    3   nprocs(helper)=    1
 ga_uses_ma=false, calling ma_init with nominal heap.
 GA-space will be limited to   8.0 MW (determined by -G option)

 Using customized tuning parameters: mindgm=7; mindgv=32; mindgc=1; mindgr=1; noblas=0; mincuda=1000; minvec=7
 default implementation of scratch files=sf  

 ***,co2h2o
 memory,100,m
 basis avtz
 geomtype = xyz
 geometry = {
 6
       0.00000000
 O     0.00351000    1.16210700    0.00000000
 O     0.00351000   -1.16210700    0.00000000
 O     2.36968000    0.00000000    0.00000000
 H     2.95589800    0.00000000    0.75853100
 H     2.95589800    0.00000000   -0.75853100
 C     0.01968000    0.00000000    0.00000000
 }
 hf
 ccsd(t)-f12
 ---

 Variables initialized (665), CPU time= 0.01 sec
 Commands  initialized (462), CPU time= 0.01 sec, 486 directives.
 Default parameters read. Elapsed time= 0.03 sec

 Checking input...
 Passed
1


                                         ***  PROGRAM SYSTEM MOLPRO  ***
                         Copyright, University College Cardiff Consultants Limited, 2008

                                    Version 2010.1 linked 9 Dec 2014 15:06:28 


 **********************************************************************************************************************************
 LABEL *   co2h2o                                                                        
 Linux-2.6.32-504.el6.x86_64/node4(x86_64) 64 bit mpp version                            DATE: 12-Dec-16          TIME: 14:58:51  
 **********************************************************************************************************************************

 Patch level:      19
 **********************************************************************************************************************************

 Variable memory set to  100000000 words,  buffer space   230000 words

 SETTING BASIS          =    AVTZ
 SETTING GEOMTYPE       =    XYZ

Geometry recognized as XYZ



 Recomputing integrals since basis changed


 Using spherical harmonics

 Library entry O      S aug-cc-pVTZ          selected for orbital group  1
 Library entry O      P aug-cc-pVTZ          selected for orbital group  1
 Library entry O      D aug-cc-pVTZ          selected for orbital group  1
 Library entry O      F aug-cc-pVTZ          selected for orbital group  1
 Library entry H      S aug-cc-pVTZ          selected for orbital group  2
 Library entry H      P aug-cc-pVTZ          selected for orbital group  2
 Library entry H      D aug-cc-pVTZ          selected for orbital group  2
 Library entry C      S aug-cc-pVTZ          selected for orbital group  3
 Library entry C      P aug-cc-pVTZ          selected for orbital group  3
 Library entry C      D aug-cc-pVTZ          selected for orbital group  3
 Library entry C      F aug-cc-pVTZ          selected for orbital group  3

1PROGRAM * SEWARD (Integral evaluation for generally contracted gaussian basis sets)     Author: Roland Lindh, 1990

 Geometry written to block  1 of record 700


 Point group  C2v 



 ATOMIC COORDINATES

 NR  ATOM    CHARGE       X              Y              Z

   1  O       8.00    0.006632939    2.196063965    0.000000000
   2  O       8.00    0.006632939   -2.196063965    0.000000000
   3  O       8.00    4.478046219    0.000000000    0.000000000
   4  H       1.00    5.585837692    0.000000000    1.433415852
   5  H       1.00    5.585837692    0.000000000   -1.433415852
   6  C       6.00    0.037189810    0.000000000    0.000000000

 Bond lengths in Bohr (Angstrom)

 1-6  2.196276545  2-6  2.196276545  3-4  1.811596797  3-5  1.811596797
     (1.162219492)     (1.162219492)     (0.958655737)     (0.958655737)

 Bond angles

  1-6-2  178.40563223   4-3-5  104.60391356

 NUCLEAR CHARGE:                   32
 NUMBER OF PRIMITIVE AOS:         322
 NUMBER OF SYMMETRY AOS:          282
 NUMBER OF CONTRACTIONS:          230   (  84A1  +  59B1  +  54B2  +  33A2  )
 NUMBER OF CORE ORBITALS:           4   (   3A1  +   1B1  +   0B2  +   0A2  )
 NUMBER OF VALENCE ORBITALS:       18   (   8A1  +   5B1  +   4B2  +   1A2  )


 NUCLEAR REPULSION ENERGY  111.25070347


 Eigenvalues of metric

         1 0.143E-03 0.266E-03 0.447E-03 0.835E-03 0.140E-02 0.263E-02 0.289E-02 0.316E-02
         2 0.332E-03 0.774E-03 0.170E-02 0.302E-02 0.385E-02 0.630E-02 0.110E-01 0.187E-01
         3 0.284E-03 0.148E-02 0.299E-02 0.361E-02 0.606E-02 0.678E-02 0.116E-01 0.130E-01
         4 0.346E-02 0.115E-01 0.292E-01 0.335E-01 0.534E-01 0.682E-01 0.941E-01 0.136E+00


 Contracted 2-electron integrals neglected if value below      1.0D-11
 AO integral compression algorithm  1   Integral accuracy      1.0D-11

     428.081 MB (compressed) written to integral file ( 48.0%)

     Node minimum: 131.334 MB, node maximum: 156.238 MB


 NUMBER OF SORTED TWO-ELECTRON INTEGRALS:   29979201.     BUFFER LENGTH:  32768
 NUMBER OF SEGMENTS:   2  SEGMENT LENGTH:   15996954      RECORD LENGTH: 524288

 Memory used in sort:      16.55 MW

 SORT1 READ   111555100. AND WROTE    28560789. INTEGRALS IN     83 RECORDS. CPU TIME:     2.74 SEC, REAL TIME:     4.17 SEC
 SORT2 READ    85704849. AND WROTE    89930217. INTEGRALS IN   1788 RECORDS. CPU TIME:     0.69 SEC, REAL TIME:     0.96 SEC

 Node minimum:    29974277.  Node maximum:    29979201. integrals

 OPERATOR DM      FOR CENTER  0  COORDINATES:    0.000000    0.000000    0.000000


 **********************************************************************************************************************************
 DATASETS  * FILE   NREC   LENGTH (MB)   RECORD NAMES
              1      18        3.23       500      610      700      900      950      970     1000      129      960     1100   
                                          VAR    BASINP    GEOM    SYMINP    ZMAT    AOBASIS   BASIS     P2S    ABASIS      S 
                                         1400     1410     1200     1210     1080     1600     1650     1700   
                                           T        V       H0       H01     AOSYM     SMH    MOLCAS    OPER   

 PROGRAMS   *        TOTAL       INT
 CPU TIMES  *         5.95      5.87
 REAL TIME  *         7.82 SEC
 DISK USED  *         1.44 GB      
 GA USED    *         0.00 MB       (max)       0.00 MB       (current)
 **********************************************************************************************************************************

1PROGRAM * RHF-SCF (CLOSED SHELL)       Authors: W. Meyer, H.-J. Werner


 NUMBER OF ELECTRONS:      16+   16-
 CONVERGENCE THRESHOLDS:    1.00E-05 (Density)    1.00E-07 (Energy)
 MAX. NUMBER OF ITERATIONS:       60
 INTERPOLATION TYPE:            DIIS
 INTERPOLATION STEPS:              2 (START)      1 (STEP)
 LEVEL SHIFTS:                  0.00 (CLOSED)  0.00 (OPEN) 



 Orbital guess generated from atomic densities. Full valence occupancy:   11   6   4   1

 Molecular orbital dump at record        2100.2

 Initial alpha occupancy:   8   5   2   1
 Initial beta  occupancy:   8   5   2   1
 Wave function symmetry:    1

 ITERATION    DDIFF          GRAD             ENERGY        2-EL.EN.            DIPOLE MOMENTS         DIIS
    1      0.000D+00      0.000D+00      -263.65987536    419.284322    1.30110    0.00000    0.00000    0
    2      0.000D+00      0.864D-02      -263.72338169    414.522443    1.01134    0.00000    0.00000    1
    3      0.140D-01      0.569D-02      -263.76151421    416.869853    1.03673    0.00000    0.00000    2
    4      0.561D-02      0.580D-03      -263.76203516    416.743264    1.03114    0.00000    0.00000    3
    5      0.716D-03      0.182D-03      -263.76209846    416.706646    1.02467    0.00000    0.00000    4
    6      0.275D-03      0.725D-04      -263.76210698    416.727910    1.02495    0.00000    0.00000    5
    7      0.906D-04      0.155D-04      -263.76210774    416.719606    1.02450    0.00000    0.00000    6
    8      0.298D-04      0.344D-05      -263.76210778    416.721136    1.02455    0.00000    0.00000    7
    9      0.724D-05      0.119D-05      -263.76210779    416.720818    1.02453    0.00000    0.00000    0

 Final occupancy:   8   5   2   1

 !RHF STATE 1.1 Energy               -263.762107786224
 Nuclear energy                       111.25070347
 One-electron energy                 -583.37322050
 Two-electron energy                  208.36040924
 Virial quotient                       -1.00140934
 !RHF STATE 1.1 Dipole moment           1.02453479     0.00000000     0.00000000
 Dipole moment /Debye                   2.60393713     0.00000000     0.00000000

 Orbital energies:

         1.1          2.1          3.1          4.1          5.1          6.1          7.1          8.1          9.1         10.1
    -20.618392   -20.581021   -11.432356    -1.499796    -1.372716    -0.771846    -0.703942    -0.588273     0.023109     0.068599

         1.2          2.2          3.2          4.2          5.2          6.2          7.2
    -20.618436    -1.446198    -0.713552    -0.544089    -0.501623     0.086634     0.164133

         1.3          2.3          3.3          4.3
     -0.737135    -0.683415     0.044415     0.093553

         1.4          2.4          3.4
     -0.513411     0.170208     0.275143


 **********************************************************************************************************************************
 DATASETS  * FILE   NREC   LENGTH (MB)   RECORD NAMES
              1      18        3.25       500      610      700      900      950      970     1000      129      960     1100   
                                          VAR    BASINP    GEOM    SYMINP    ZMAT    AOBASIS   BASIS     P2S    ABASIS      S 
                                         1400     1410     1200     1210     1080     1600     1650     1700   
                                           T        V       H0       H01     AOSYM     SMH    MOLCAS    OPER   

              2       3        0.67       700     1000     2100   
                                         GEOM     BASIS     RHF  

 PROGRAMS   *        TOTAL        HF       INT
 CPU TIMES  *         7.28      1.33      5.87
 REAL TIME  *         9.41 SEC
 DISK USED  *         1.46 GB      
 SF USED    *         0.06 MB      
 GA USED    *         0.00 MB       (max)       0.00 MB       (current)
 **********************************************************************************************************************************


1PROGRAM * CCSD (Closed-shell coupled cluster)     Authors: C. Hampel, H.-J. Werner, 1991, M. Deegan, P.J. Knowles, 1992

                                  CCSD-F12 implementation by  H.-J. Werner, 2007

                   Density fitting integral evaluation by F.R. Manby, 2003,2007, G. Knizia, 2010

 Basis set CC-PVTZ/JKFIT generated.      Number of basis functions:   376 
 Basis set AUG-CC-PVTZ/MP2FIT generated. Number of basis functions:   516 

 Convergence thresholds:  THRVAR = 1.00D-08  THRDEN = 1.00D-06

 CCSD(T)     terms to be evaluated (factor= 1.000)


 Number of core orbitals:           4 (   3   1   0   0 )
 Number of closed-shell orbitals:  12 (   5   4   2   1 )
 Number of external orbitals:     214 (  76  54  52  32 )

 Molecular orbitals read from record     2100.2  Type=RHF/CANONICAL (state 1.1)

 MP2-F12 correlation treatment (H.-J. Werner, 2006)
 --------------------------------------------------

 Using MP2-F12 with ansatz 3C(FIX)

 Using projected zeroth-order Hamiltonian (+Z)

 FOCKRIB=T FOCKRIC=T FOCKRIP=T CABSP=T CABSA=T CABSK=T CABSF=T GBC=F EBC=F DMAT=T NOFIK=T NOPAO=1 SOLVE=-1  USEPAO=0
 EXCH_A= T EXCH_B= F EXCH_C= F EXCH_P= F
 
 Geminal basis:    OPTFULL  GEM_TYPE=SLATER  BETA=1.0  NGEM=6

 Optimizing Gaussian exponents for each gem_beta

 Geminal optimization for beta= 1.0000
 Weight function:   m=0, omega= 1.4646

 Augmented Hessian optimization of geminal fit. Trust ratio= 0.40000
 Convergence reached after   2 iterations. Final gradient= 8.24D-16, Step= 4.32D-06, Delta= 1.28D-09
 
 Alpha:                 0.19532     0.81920     2.85917     9.50073    35.69989   197.79328
 Coeff:                 0.27070     0.30552     0.18297     0.10986     0.06810     0.04224
 

 Symmetry turned off. Reference energy:       -263.762107786223

 All pairs explicitly correlated. Number of r12-pairs:           78
 
 AO(A)-basis ORBITAL           loaded. Number of functions:     230
 RI(R)-basis CC-PVTZ/JKFIT     loaded. Number of functions:     376
 DF-basis CC-PVTZ/JKFIT        loaded. Number of functions:     376

 Screening thresholds:   THRAO=  1.00D-10  THRMO=  1.00D-09  THRPROD=  1.00D-09
                         THRSW=  1.00D-05  THROV=  1.00D-12  THRF12=   1.00D-08

 CPU time for Fock operators                      1.05 sec
 
 Construction of ABS:
 Smallest eigenvalue of S          2.36E-04  (threshold= 1.00E-08)
 Ratio eigmin/eigmax               1.68E-06  (threshold= 1.00E-09)
 Smallest eigenvalue of S kept     2.36E-04  (threshold= 2.36E-04, 0 functions deleted, 376 kept)
 
 Construction of CABS:
 Smallest eigenvalue of S          2.24E-08  (threshold= 1.00E-08)
 Ratio eigmin/eigmax               2.24E-08  (threshold= 1.00E-09)
 Smallest eigenvalue of S kept     2.24E-08  (threshold= 2.24E-08, 0 functions deleted, 376 kept)
 
 CPU time for CABS singles                        0.17 sec

 CABS-singles contribution of  -0.01594351 patched into reference energy.
 New reference energy        -263.77805130
 
 AO(A)-basis ORBITAL           loaded. Number of functions:     230
 RI(R)-basis CC-PVTZ/JKFIT     loaded. Number of functions:     376
 DF-basis AUG-CC-PVTZ/MP2FIT   loaded. Number of functions:     516

 Screening thresholds:   THRAO=  1.00D-10  THRMO=  1.00D-09  THRPROD=  1.00D-09
                         THRSW=  1.00D-05  THROV=  1.00D-12  THRF12=   1.00D-08

 CPU time for 3-index integral evaluation         3.39 sec
 CPU time for first  half transformation          0.23 sec (12205.7 MFLOP/sec)
 CPU time for second half transformation          0.02 sec ( 5524.4 MFLOP/sec)
 CPU time for sorting                             0.17 sec
 CPU time for fitting                             0.05 sec (27861.0 MFLOP/sec)
 CPU time for tilde quantities                    0.08 sec (23111.0 MFLOP/sec)
 CPU time for assembly                            0.86 sec (27676.2 MFLOP/sec)
 CPU time for tranop_f12                          0.94 sec (32433.2 MFLOP/sec)
 CPU time for f12 integrals (total)               7.92 sec
 F12-matrices built in  3 passes.
 F12-matrices built in  3 passes.
 F12-matrices built in  3 passes.
 F12-matrices built in  3 passes.
 FC-matrix built in  3 passes.
 CPU time for f12 matrices (total)                0.55 sec

 Diagonal F12 approximation with fixed coefficients:  TSING= 0.500,  TTRIP= 0.250 (scaled by -1/beta)

 DF-MP2-F12 energy corrections:
 ------------------------------
 Approx.                                    Singlet             Triplet             Total
 DF-MP2-F12/3*C(DX,FIX)                -0.097461153643     -0.017103129366     -0.114564283009
 DF-MP2-F12/3*C(FIX)                   -0.079823667901     -0.013584874690     -0.093408542591
 DF-MP2-F12/3C(FIX)                    -0.080199470861     -0.013632162555     -0.093831633416

 DF-MP2-F12 correlation energies:
 --------------------------------
 Approx.                                    Singlet             Triplet             Ecorr            Total Energy
 DF-MP2                                -0.538195104124     -0.346501090081     -0.884696194205   -264.662747494544
 DF-MP2-F12/3*C(DX,FIX)                -0.635656257767     -0.363604219447     -0.999260477214   -264.777311777554
 DF-MP2-F12/3*C(FIX)                   -0.618018772025     -0.360085964771     -0.978104736796   -264.756156037135
 DF-MP2-F12/3C(FIX)                    -0.618394574985     -0.360133252636     -0.978527827621   -264.756579127961

 SCS-DF-MP2 energies (F_SING= 1.20000  F_TRIP= 0.62222  F_PARALLEL= 0.33333):
 ----------------------------------------------------------------------------
 SCS-DF-MP2                            -0.861434803222   -264.639486103561
 SCS-DF-MP2-F12/3*C(DX,FIX)            -0.989030134754   -264.767081435094
 SCS-DF-MP2-F12/3*C(FIX)               -0.965676015621   -264.743727315960
 SCS-DF-MP2-F12/3C(FIX)                -0.966156402733   -264.744207703073

 Symmetry restored.
 Symmetry transformation completed.

 Number of N-1 electron functions:              12
 Number of N-2 electron functions:              78
 Number of singly external CSFs:               732
 Number of doubly external CSFs:            836016
 Total number of CSFs:                      836749

 Pair and operator lists are different

 Length of J-op  integral file:             462.26 MB
 Length of K-op  integral file:             502.03 MB
 Length of 3-ext integral record:             0.00 MB

 Memory could be reduced to 38.69 Mwords without degradation in triples

 Integral transformation finished. Total CPU:   1.43 sec, npass=  1  Memory used:   6.07 MW

 Reference energy:                   -263.77805130

 Adding F12 terms to K(Cij), methodcc=6,  factor=1.0

 ITER.      SQ.NORM     CORR.ENERGY   TOTAL ENERGY   ENERGY CHANGE        DEN1      VAR(S)    VAR(P)  DIIS     TIME
   1      1.20190922    -0.86631804  -264.64436934     0.01838762     0.04694124  0.73D-02  0.55D-02  1  1    12.49
   2      1.21626266    -0.86216130  -264.64021260     0.00415673    -0.02022102  0.92D-04  0.59D-03  2  2    13.51
   3      1.22164392    -0.86228864  -264.64033994    -0.00012734    -0.00230220  0.14D-03  0.32D-04  3  3    14.53
   4      1.22450156    -0.86215633  -264.64020763     0.00013232    -0.00141952  0.85D-05  0.41D-05  4  4    15.53
   5      1.22557074    -0.86211983  -264.64017113     0.00003650    -0.00036951  0.73D-06  0.29D-06  5  5    16.56
   6      1.22574666    -0.86209202  -264.64014332     0.00002780    -0.00000791  0.55D-07  0.29D-07  6  6    17.61
   7      1.22578250    -0.86208907  -264.64014037     0.00000295    -0.00000695  0.60D-08  0.43D-08  6  2    18.67
   8      1.22578392    -0.86208876  -264.64014006     0.00000032     0.00000201  0.58D-09  0.38D-09  6  1    19.72
   9      1.22578460    -0.86208886  -264.64014016    -0.00000011     0.00000075  0.72D-10  0.32D-10  6  4    20.74

 Norm of t1 vector:      0.10758900      S-energy:     0.00000005      T1 diagnostic:  0.01552913
                                                                       D1 diagnostic:  0.04735921

 Adding energy correction from Wij-K(Fij), methodcc=6  factor=1.0
 
  CCSD correlation energy              -0.862088862548
  MP2-F12 correction (uncoupled)       -0.092656019865
  C*T doubles correction               -0.001482008528
  f12b correction                       0.015433332435


 Total CPU time for triples:     25.89 sec


 RESULTS
 =======

  Reference energy                   -263.762107786223
  F12 singles correction               -0.015943514116

 F12 singles corrections added to reference energy

  New reference energy               -263.778051300339

  F12a singlet correction              -0.080399992399
  F12a triplet correction              -0.013738035994
  F12a total correction                -0.094138028393

 F12a corrections for ansatz F12/3C(FIX) added to CCSD energy
 
  CCSD-F12a singlet pair energy        -0.641776775774
  CCSD-F12a triplet pair energy        -0.314450168518
  CCSD-F12a correlation energy         -0.956226890941

  Triples (T) contribution             -0.038277691907
  Total correlation energy             -0.994504582847

  CCSD-F12a total energy             -264.734278191280
  CCSD[T]-F12a energy                -264.775117500718
  CCSD-T-F12a energy                 -264.771627275181
 !CCSD(T)-F12a total energy          -264.772555883187

 F12b corrections for ansatz F12/3C(FIX) added to CCSD(T)-F12a energy

  CCSD-F12b singlet pair energy        -0.627590010286
  CCSD-F12b triplet pair energy        -0.313203601571
  CCSD-F12b correlation energy         -0.940793558506

  Triples (T) contribution             -0.038277691907
  Total correlation energy             -0.979071250412

  CCSD-F12b total energy             -264.718844858845
  CCSD[T]-F12b energy                -264.759684168283
  CCSD-T-F12b energy                 -264.756193942746
 !CCSD(T)-F12b total energy          -264.757122550752

 Timing summary (sec):

 STEP                 CPU(USER)    SYS     CPU(TOT)    WALL
 Transformation          1.44      0.26      1.70      1.69
 CCSD iterations         9.22      0.74      9.96     10.11
 Triples                25.89      0.76     26.65     27.50
 MP2-F12                10.09      1.21     11.30     11.35
 F12b energy             0.57      0.02      0.59      0.58

 Program statistics:

 Available memory in ccsd:                99998934
 Min. memory needed in ccsd:               2244783
 Max. memory used in ccsd:                 3005571
 Max. memory used in cckext:               2769663 (10 integral passes)



 **********************************************************************************************************************************
 DATASETS  * FILE   NREC   LENGTH (MB)   RECORD NAMES
              1      20      137.19       500      610      700      900      950      970     1000      129      960     1100   
                                          VAR    BASINP    GEOM    SYMINP    ZMAT    AOBASIS   BASIS     P2S    ABASIS      S 
                                         1400     1410     1200     1210     1080     1600     1650     1700      960(1)  1380   
                                           T        V       H0       H01     AOSYM     SMH    MOLCAS    OPER    ABASIS    JKOP   

              2       5        0.97       700     1000     2100     7360     7350   
                                         GEOM     BASIS     RHF    F12ABS    EF12   

 PROGRAMS   *        TOTAL   CCSD(T)        HF       INT
 CPU TIMES  *        54.55     47.26      1.33      5.87
 REAL TIME  *        60.88 SEC
 DISK USED  *         1.68 GB      
 SF USED    *         1.34 GB      
 GA USED    *         2.40 MB       (max)       0.00 MB       (current)
 **********************************************************************************************************************************

     CCSD(T)-F12        HF-SCF  
   -264.75712255   -263.76210779
 **********************************************************************************************************************************
 Variable memory released
