
 Primary working directories    : /scratch/kee
 Secondary working directories  : /scratch/kee
 Wavefunction directory         : /home/kee/wfu/
 Main file repository           : /scratch/kee/

 ARCHNAME  : Linux/x86_64
 FC        : /opt/intel/composer_xe_2015.0.090/bin/intel64/ifort
 FCVERSION : 15.0.0
 BLASLIB   : -L/opt/intel/mkl/lib/intel64 -lmkl_intel_ilp64 -lmkl_sequential -lmkl_core
 id        : emory

 Nodes     nprocs
 node4        3
 Number of processes for MPI-2 version of Molpro:   nprocs(total)=    4   nprocs(compute)=    3   nprocs(helper)=    1
 ga_uses_ma=false, calling ma_init with nominal heap.
 GA-space will be limited to   8.0 MW (determined by -G option)

 Using customized tuning parameters: mindgm=7; mindgv=32; mindgc=1; mindgr=1; noblas=0; mincuda=1000; minvec=7
 default implementation of scratch files=sf  

 ***,co2h2o
 memory,100,m
 basis avtz
 geomtype = xyz
 geometry = {
 6
       0.00000000
 O     0.00351000    1.16210700    0.00000000
 O     0.00351000   -1.16210700    0.00000000
 O     2.51968000    0.00000000    0.00000000
 H     3.10589800    0.00000000    0.75853100
 H     3.10589800    0.00000000   -0.75853100
 C     0.01968000    0.00000000    0.00000000
 }
 hf
 ccsd(t)-f12
 ---

 Variables initialized (665), CPU time= 0.01 sec
 Commands  initialized (462), CPU time= 0.00 sec, 486 directives.
 Default parameters read. Elapsed time= 0.04 sec

 Checking input...
 Passed
1


                                         ***  PROGRAM SYSTEM MOLPRO  ***
                         Copyright, University College Cardiff Consultants Limited, 2008

                                    Version 2010.1 linked 9 Dec 2014 15:06:28 


 **********************************************************************************************************************************
 LABEL *   co2h2o                                                                        
 Linux-2.6.32-504.el6.x86_64/node4(x86_64) 64 bit mpp version                            DATE: 12-Dec-16          TIME: 15:02:24  
 **********************************************************************************************************************************

 Patch level:      19
 **********************************************************************************************************************************

 Variable memory set to  100000000 words,  buffer space   230000 words

 SETTING BASIS          =    AVTZ
 SETTING GEOMTYPE       =    XYZ

Geometry recognized as XYZ



 Recomputing integrals since basis changed


 Using spherical harmonics

 Library entry O      S aug-cc-pVTZ          selected for orbital group  1
 Library entry O      P aug-cc-pVTZ          selected for orbital group  1
 Library entry O      D aug-cc-pVTZ          selected for orbital group  1
 Library entry O      F aug-cc-pVTZ          selected for orbital group  1
 Library entry H      S aug-cc-pVTZ          selected for orbital group  2
 Library entry H      P aug-cc-pVTZ          selected for orbital group  2
 Library entry H      D aug-cc-pVTZ          selected for orbital group  2
 Library entry C      S aug-cc-pVTZ          selected for orbital group  3
 Library entry C      P aug-cc-pVTZ          selected for orbital group  3
 Library entry C      D aug-cc-pVTZ          selected for orbital group  3
 Library entry C      F aug-cc-pVTZ          selected for orbital group  3

1PROGRAM * SEWARD (Integral evaluation for generally contracted gaussian basis sets)     Author: Roland Lindh, 1990

 Geometry written to block  1 of record 700


 Point group  C2v 



 ATOMIC COORDINATES

 NR  ATOM    CHARGE       X              Y              Z

   1  O       8.00    0.006632939    2.196063965    0.000000000
   2  O       8.00    0.006632939   -2.196063965    0.000000000
   3  O       8.00    4.761505139    0.000000000    0.000000000
   4  H       1.00    5.869296612    0.000000000    1.433415852
   5  H       1.00    5.869296612    0.000000000   -1.433415852
   6  C       6.00    0.037189810    0.000000000    0.000000000

 Bond lengths in Bohr (Angstrom)

 1-6  2.196276545  2-6  2.196276545  3-4  1.811596797  3-5  1.811596797
     (1.162219492)     (1.162219492)     (0.958655737)     (0.958655737)

 Bond angles

  1-6-2  178.40563223   4-3-5  104.60391356

 NUCLEAR CHARGE:                   32
 NUMBER OF PRIMITIVE AOS:         322
 NUMBER OF SYMMETRY AOS:          282
 NUMBER OF CONTRACTIONS:          230   (  84A1  +  59B1  +  54B2  +  33A2  )
 NUMBER OF CORE ORBITALS:           4   (   3A1  +   1B1  +   0B2  +   0A2  )
 NUMBER OF VALENCE ORBITALS:       18   (   8A1  +   5B1  +   4B2  +   1A2  )


 NUCLEAR REPULSION ENERGY  109.04258143


 Eigenvalues of metric

         1 0.174E-03 0.282E-03 0.546E-03 0.855E-03 0.152E-02 0.278E-02 0.303E-02 0.318E-02
         2 0.335E-03 0.791E-03 0.171E-02 0.308E-02 0.407E-02 0.640E-02 0.117E-01 0.192E-01
         3 0.295E-03 0.150E-02 0.303E-02 0.369E-02 0.610E-02 0.710E-02 0.119E-01 0.133E-01
         4 0.346E-02 0.117E-01 0.292E-01 0.344E-01 0.538E-01 0.686E-01 0.972E-01 0.137E+00


 Contracted 2-electron integrals neglected if value below      1.0D-11
 AO integral compression algorithm  1   Integral accuracy      1.0D-11

     418.906 MB (compressed) written to integral file ( 46.9%)

     Node minimum: 129.761 MB, node maximum: 155.976 MB


 NUMBER OF SORTED TWO-ELECTRON INTEGRALS:   29979201.     BUFFER LENGTH:  32768
 NUMBER OF SEGMENTS:   2  SEGMENT LENGTH:   15996954      RECORD LENGTH: 524288

 Memory used in sort:      16.55 MW

 SORT1 READ   111555100. AND WROTE    28237127. INTEGRALS IN     82 RECORDS. CPU TIME:     2.91 SEC, REAL TIME:     6.37 SEC
 SORT2 READ    84723821. AND WROTE    89930217. INTEGRALS IN   1785 RECORDS. CPU TIME:     0.00 SEC, REAL TIME:     5.77 SEC

 Node minimum:    29974277.  Node maximum:    29979201. integrals

 OPERATOR DM      FOR CENTER  0  COORDINATES:    0.000000    0.000000    0.000000


 **********************************************************************************************************************************
 DATASETS  * FILE   NREC   LENGTH (MB)   RECORD NAMES
              1      18        3.23       500      610      700      900      950      970     1000      129      960     1100   
                                          VAR    BASINP    GEOM    SYMINP    ZMAT    AOBASIS   BASIS     P2S    ABASIS      S 
                                         1400     1410     1200     1210     1080     1600     1650     1700   
                                           T        V       H0       H01     AOSYM     SMH    MOLCAS    OPER   

 PROGRAMS   *        TOTAL       INT
 CPU TIMES  *         5.52      5.42
 REAL TIME  *        15.15 SEC
 DISK USED  *         1.43 GB      
 GA USED    *         0.00 MB       (max)       0.00 MB       (current)
 **********************************************************************************************************************************

1PROGRAM * RHF-SCF (CLOSED SHELL)       Authors: W. Meyer, H.-J. Werner


 NUMBER OF ELECTRONS:      16+   16-
 CONVERGENCE THRESHOLDS:    1.00E-05 (Density)    1.00E-07 (Energy)
 MAX. NUMBER OF ITERATIONS:       60
 INTERPOLATION TYPE:            DIIS
 INTERPOLATION STEPS:              2 (START)      1 (STEP)
 LEVEL SHIFTS:                  0.00 (CLOSED)  0.00 (OPEN) 



 Orbital guess generated from atomic densities. Full valence occupancy:   11   6   4   1

 Molecular orbital dump at record        2100.2

 Initial alpha occupancy:   8   5   2   1
 Initial beta  occupancy:   8   5   2   1
 Wave function symmetry:    1

 ITERATION    DDIFF          GRAD             ENERGY        2-EL.EN.            DIPOLE MOMENTS         DIIS
    1      0.000D+00      0.000D+00      -263.66408935    414.742189    1.26291    0.00000    0.00000    0
    2      0.000D+00      0.866D-02      -263.72757906    409.994357    0.95798    0.00000    0.00000    1
    3      0.140D-01      0.572D-02      -263.76626872    412.391190    0.99808    0.00000    0.00000    2
    4      0.564D-02      0.577D-03      -263.76677871    412.243594    0.99460    0.00000    0.00000    3
    5      0.709D-03      0.177D-03      -263.76683988    412.215647    0.98879    0.00000    0.00000    4
    6      0.270D-03      0.715D-04      -263.76684811    412.235655    0.98929    0.00000    0.00000    5
    7      0.895D-04      0.157D-04      -263.76684887    412.227200    0.98887    0.00000    0.00000    6
    8      0.295D-04      0.349D-05      -263.76684891    412.228686    0.98892    0.00000    0.00000    7
    9      0.738D-05      0.119D-05      -263.76684891    412.228395    0.98890    0.00000    0.00000    0

 Final occupancy:   8   5   2   1

 !RHF STATE 1.1 Energy               -263.766848913291
 Nuclear energy                       109.04258143
 One-electron energy                 -578.92362790
 Two-electron energy                  206.11419756
 Virial quotient                       -1.00158303
 !RHF STATE 1.1 Dipole moment           0.98890136     0.00000000     0.00000000
 Dipole moment /Debye                   2.51337191     0.00000000     0.00000000

 Orbital energies:

         1.1          2.1          3.1          4.1          5.1          6.1          7.1          8.1          9.1         10.1
    -20.622824   -20.579910   -11.435039    -1.502594    -1.369518    -0.774448    -0.698626    -0.593234     0.023749     0.067593

         1.2          2.2          3.2          4.2          5.2          6.2          7.2
    -20.622869    -1.449411    -0.716653    -0.538164    -0.506792     0.086758     0.165053

         1.3          2.3          3.3          4.3
     -0.733800    -0.686868     0.044720     0.092607

         1.4          2.4          3.4
     -0.516867     0.170206     0.273763


 **********************************************************************************************************************************
 DATASETS  * FILE   NREC   LENGTH (MB)   RECORD NAMES
              1      18        3.25       500      610      700      900      950      970     1000      129      960     1100   
                                          VAR    BASINP    GEOM    SYMINP    ZMAT    AOBASIS   BASIS     P2S    ABASIS      S 
                                         1400     1410     1200     1210     1080     1600     1650     1700   
                                           T        V       H0       H01     AOSYM     SMH    MOLCAS    OPER   

              2       3        0.67       700     1000     2100   
                                         GEOM     BASIS     RHF  

 PROGRAMS   *        TOTAL        HF       INT
 CPU TIMES  *         6.23      0.71      5.42
 REAL TIME  *        16.71 SEC
 DISK USED  *         1.45 GB      
 SF USED    *         0.06 MB      
 GA USED    *         0.00 MB       (max)       0.00 MB       (current)
 **********************************************************************************************************************************


1PROGRAM * CCSD (Closed-shell coupled cluster)     Authors: C. Hampel, H.-J. Werner, 1991, M. Deegan, P.J. Knowles, 1992

                                  CCSD-F12 implementation by  H.-J. Werner, 2007

                   Density fitting integral evaluation by F.R. Manby, 2003,2007, G. Knizia, 2010

 Basis set CC-PVTZ/JKFIT generated.      Number of basis functions:   376 
 Basis set AUG-CC-PVTZ/MP2FIT generated. Number of basis functions:   516 

 Convergence thresholds:  THRVAR = 1.00D-08  THRDEN = 1.00D-06

 CCSD(T)     terms to be evaluated (factor= 1.000)


 Number of core orbitals:           4 (   3   1   0   0 )
 Number of closed-shell orbitals:  12 (   5   4   2   1 )
 Number of external orbitals:     214 (  76  54  52  32 )

 Molecular orbitals read from record     2100.2  Type=RHF/CANONICAL (state 1.1)

 MP2-F12 correlation treatment (H.-J. Werner, 2006)
 --------------------------------------------------

 Using MP2-F12 with ansatz 3C(FIX)

 Using projected zeroth-order Hamiltonian (+Z)

 FOCKRIB=T FOCKRIC=T FOCKRIP=T CABSP=T CABSA=T CABSK=T CABSF=T GBC=F EBC=F DMAT=T NOFIK=T NOPAO=1 SOLVE=-1  USEPAO=0
 EXCH_A= T EXCH_B= F EXCH_C= F EXCH_P= F
 
 Geminal basis:    OPTFULL  GEM_TYPE=SLATER  BETA=1.0  NGEM=6

 Optimizing Gaussian exponents for each gem_beta

 Geminal optimization for beta= 1.0000
 Weight function:   m=0, omega= 1.4646

 Augmented Hessian optimization of geminal fit. Trust ratio= 0.40000
 Convergence reached after   2 iterations. Final gradient= 8.24D-16, Step= 4.32D-06, Delta= 1.28D-09
 
 Alpha:                 0.19532     0.81920     2.85917     9.50073    35.69989   197.79328
 Coeff:                 0.27070     0.30552     0.18297     0.10986     0.06810     0.04224
 

 Symmetry turned off. Reference energy:       -263.766848913291

 All pairs explicitly correlated. Number of r12-pairs:           78
 
 AO(A)-basis ORBITAL           loaded. Number of functions:     230
 RI(R)-basis CC-PVTZ/JKFIT     loaded. Number of functions:     376
 DF-basis CC-PVTZ/JKFIT        loaded. Number of functions:     376

 Screening thresholds:   THRAO=  1.00D-10  THRMO=  1.00D-09  THRPROD=  1.00D-09
                         THRSW=  1.00D-05  THROV=  1.00D-12  THRF12=   1.00D-08

 CPU time for Fock operators                      1.07 sec
 
 Construction of ABS:
 Smallest eigenvalue of S          2.42E-04  (threshold= 1.00E-08)
 Ratio eigmin/eigmax               1.73E-06  (threshold= 1.00E-09)
 Smallest eigenvalue of S kept     2.42E-04  (threshold= 2.42E-04, 0 functions deleted, 376 kept)
 
 Construction of CABS:
 Smallest eigenvalue of S          2.26E-08  (threshold= 1.00E-08)
 Ratio eigmin/eigmax               2.26E-08  (threshold= 1.00E-09)
 Smallest eigenvalue of S kept     2.26E-08  (threshold= 2.26E-08, 0 functions deleted, 376 kept)
 
 CPU time for CABS singles                        0.18 sec

 CABS-singles contribution of  -0.01594689 patched into reference energy.
 New reference energy        -263.78279581
 
 AO(A)-basis ORBITAL           loaded. Number of functions:     230
 RI(R)-basis CC-PVTZ/JKFIT     loaded. Number of functions:     376
 DF-basis AUG-CC-PVTZ/MP2FIT   loaded. Number of functions:     516

 Screening thresholds:   THRAO=  1.00D-10  THRMO=  1.00D-09  THRPROD=  1.00D-09
                         THRSW=  1.00D-05  THROV=  1.00D-12  THRF12=   1.00D-08

 CPU time for 3-index integral evaluation         3.19 sec
 CPU time for first  half transformation          0.36 sec ( 8314.9 MFLOP/sec)
 CPU time for second half transformation          0.03 sec ( 3256.1 MFLOP/sec)
 CPU time for sorting                             0.30 sec
 CPU time for fitting                             0.05 sec (27690.6 MFLOP/sec)
 CPU time for tilde quantities                    0.09 sec (20543.1 MFLOP/sec)
 CPU time for assembly                            0.95 sec (23574.9 MFLOP/sec)
 CPU time for tranop_f12                          0.97 sec (29483.1 MFLOP/sec)
 CPU time for f12 integrals (total)               8.24 sec
 F12-matrices built in  3 passes.
 F12-matrices built in  3 passes.
 F12-matrices built in  3 passes.
 F12-matrices built in  3 passes.
 FC-matrix built in  3 passes.
 CPU time for f12 matrices (total)                0.59 sec

 Diagonal F12 approximation with fixed coefficients:  TSING= 0.500,  TTRIP= 0.250 (scaled by -1/beta)

 DF-MP2-F12 energy corrections:
 ------------------------------
 Approx.                                    Singlet             Triplet             Total
 DF-MP2-F12/3*C(DX,FIX)                -0.097397533434     -0.017051394339     -0.114448927774
 DF-MP2-F12/3*C(FIX)                   -0.079787418936     -0.013534126869     -0.093321545805
 DF-MP2-F12/3C(FIX)                    -0.080161582320     -0.013576888987     -0.093738471307

 DF-MP2-F12 correlation energies:
 --------------------------------
 Approx.                                    Singlet             Triplet             Ecorr            Total Energy
 DF-MP2                                -0.538116692819     -0.345672235280     -0.883788928099   -264.666584735816
 DF-MP2-F12/3*C(DX,FIX)                -0.635514226253     -0.362723629620     -0.998237855873   -264.781033663590
 DF-MP2-F12/3*C(FIX)                   -0.617904111755     -0.359206362150     -0.977110473905   -264.759906281621
 DF-MP2-F12/3C(FIX)                    -0.618278275139     -0.359249124268     -0.977527399407   -264.760323207123

 SCS-DF-MP2 energies (F_SING= 1.20000  F_TRIP= 0.62222  F_PARALLEL= 0.33333):
 ----------------------------------------------------------------------------
 SCS-DF-MP2                            -0.860824977779   -264.643620785496
 SCS-DF-MP2-F12/3*C(DX,FIX)            -0.988311774378   -264.771107582095
 SCS-DF-MP2-F12/3*C(FIX)               -0.964991114999   -264.747786922716
 SCS-DF-MP2-F12/3C(FIX)                -0.965466718600   -264.748262526317

 Symmetry restored.
 Symmetry transformation completed.

 Number of N-1 electron functions:              12
 Number of N-2 electron functions:              78
 Number of singly external CSFs:               732
 Number of doubly external CSFs:            836016
 Total number of CSFs:                      836749

 Pair and operator lists are different

 Length of J-op  integral file:             462.26 MB
 Length of K-op  integral file:             502.03 MB
 Length of 3-ext integral record:             0.00 MB

 Memory could be reduced to 38.69 Mwords without degradation in triples

 Integral transformation finished. Total CPU:   1.87 sec, npass=  1  Memory used:   6.07 MW

 Reference energy:                   -263.78279581

 Adding F12 terms to K(Cij), methodcc=6,  factor=1.0

 ITER.      SQ.NORM     CORR.ENERGY   TOTAL ENERGY   ENERGY CHANGE        DEN1      VAR(S)    VAR(P)  DIIS     TIME
   1      1.20204568    -0.86551639  -264.64831220     0.01828351     0.04684549  0.72D-02  0.55D-02  1  1    13.46
   2      1.21640394    -0.86135333  -264.64414914     0.00416306    -0.02021632  0.90D-04  0.59D-03  2  2    14.49
   3      1.22177305    -0.86147545  -264.64427126    -0.00012212    -0.00230940  0.13D-03  0.32D-04  3  3    15.69
   4      1.22461404    -0.86134451  -264.64414032     0.00013094    -0.00141766  0.82D-05  0.41D-05  4  4    16.89
   5      1.22566856    -0.86130790  -264.64410370     0.00003662    -0.00036741  0.66D-06  0.29D-06  5  5    18.12
   6      1.22583933    -0.86128045  -264.64407626     0.00002745    -0.00000795  0.49D-07  0.27D-07  6  6    19.24
   7      1.22587330    -0.86127756  -264.64407337     0.00000289    -0.00000685  0.47D-08  0.41D-08  6  2    20.23
   8      1.22587426    -0.86127727  -264.64407308     0.00000029     0.00000204  0.50D-09  0.34D-09  6  1    21.26
   9      1.22587492    -0.86127735  -264.64407316    -0.00000008     0.00000069  0.56D-10  0.28D-10  6  4    22.24

 Norm of t1 vector:      0.10712913      S-energy:     0.00000003      T1 diagnostic:  0.01546276
                                                                       D1 diagnostic:  0.04668519

 Adding energy correction from Wij-K(Fij), methodcc=6  factor=1.0
 
  CCSD correlation energy              -0.861277353474
  MP2-F12 correction (uncoupled)       -0.092574524335
  C*T doubles correction               -0.001473966110
  f12b correction                       0.015424799276


 Total CPU time for triples:     33.31 sec


 RESULTS
 =======

  Reference energy                   -263.766848913291
  F12 singles correction               -0.015946894426

 F12 singles corrections added to reference energy

  New reference energy               -263.782795807717

  F12a singlet correction              -0.080362772790
  F12a triplet correction              -0.013685717655
  F12a total correction                -0.094048490445

 F12a corrections for ansatz F12/3C(FIX) added to CCSD energy
 
  CCSD-F12a singlet pair energy        -0.641811979307
  CCSD-F12a triplet pair energy        -0.313513894743
  CCSD-F12a correlation energy         -0.955325843918

  Triples (T) contribution             -0.038149991059
  Total correlation energy             -0.993475834978

  CCSD-F12a total energy             -264.738121651635
  CCSD[T]-F12a energy                -264.778826038915
  CCSD-T-F12a energy                 -264.775341330612
 !CCSD(T)-F12a total energy          -264.776271642694

 F12b corrections for ansatz F12/3C(FIX) added to CCSD(T)-F12a energy

  CCSD-F12b singlet pair energy        -0.627627743103
  CCSD-F12b triplet pair energy        -0.312273331671
  CCSD-F12b correlation energy         -0.939901044643

  Triples (T) contribution             -0.038149991059
  Total correlation energy             -0.978051035702

  CCSD-F12b total energy             -264.722696852359
  CCSD[T]-F12b energy                -264.763401239639
  CCSD-T-F12b energy                 -264.759916531336
 !CCSD(T)-F12b total energy          -264.760846843418

 Timing summary (sec):

 STEP                 CPU(USER)    SYS     CPU(TOT)    WALL
 Transformation          1.87      1.00      2.87      7.20
 CCSD iterations         9.83      1.83     11.66     12.62
 Triples                33.31      1.35     34.66     34.65
 MP2-F12                10.54      1.78     12.32     12.36
 F12b energy             0.65      0.04      0.69      0.68

 Program statistics:

 Available memory in ccsd:                99998934
 Min. memory needed in ccsd:               2244783
 Max. memory used in ccsd:                 3005571
 Max. memory used in cckext:               2769663 (10 integral passes)



 **********************************************************************************************************************************
 DATASETS  * FILE   NREC   LENGTH (MB)   RECORD NAMES
              1      20      137.19       500      610      700      900      950      970     1000      129      960     1100   
                                          VAR    BASINP    GEOM    SYMINP    ZMAT    AOBASIS   BASIS     P2S    ABASIS      S 
                                         1400     1410     1200     1210     1080     1600     1650     1700      960(1)  1380   
                                           T        V       H0       H01     AOSYM     SMH    MOLCAS    OPER    ABASIS    JKOP   

              2       5        0.97       700     1000     2100     7360     7350   
                                         GEOM     BASIS     RHF    F12ABS    EF12   

 PROGRAMS   *        TOTAL   CCSD(T)        HF       INT
 CPU TIMES  *        62.47     56.23      0.71      5.42
 REAL TIME  *        84.50 SEC
 DISK USED  *         1.67 GB      
 SF USED    *         1.34 GB      
 GA USED    *         2.40 MB       (max)       0.00 MB       (current)
 **********************************************************************************************************************************

     CCSD(T)-F12        HF-SCF  
   -264.76084684   -263.76684891
 **********************************************************************************************************************************
 Variable memory released
