
 Primary working directories    : /scratch/kee
 Secondary working directories  : /scratch/kee
 Wavefunction directory         : /home/kee/wfu/
 Main file repository           : /scratch/kee/

 ARCHNAME  : Linux/x86_64
 FC        : /opt/intel/composer_xe_2015.0.090/bin/intel64/ifort
 FCVERSION : 15.0.0
 BLASLIB   : -L/opt/intel/mkl/lib/intel64 -lmkl_intel_ilp64 -lmkl_sequential -lmkl_core
 id        : emory

 Nodes     nprocs
 node4        3
 Number of processes for MPI-2 version of Molpro:   nprocs(total)=    4   nprocs(compute)=    3   nprocs(helper)=    1
 ga_uses_ma=false, calling ma_init with nominal heap.
 GA-space will be limited to   8.0 MW (determined by -G option)

 Using customized tuning parameters: mindgm=7; mindgv=32; mindgc=1; mindgr=1; noblas=0; mincuda=1000; minvec=7
 default implementation of scratch files=sf  

 ***,co2h2o
 memory,100,m
 basis avtz
 geomtype = xyz
 geometry = {
 6
       0.00000000
 O     0.00351000    1.16210700    0.00000000
 O     0.00351000   -1.16210700    0.00000000
 O     2.11968000    0.00000000    0.00000000
 H     2.70589800    0.00000000    0.75853100
 H     2.70589800    0.00000000   -0.75853100
 C     0.01968000    0.00000000    0.00000000
 }
 hf
 ccsd(t)-f12
 ---

 Variables initialized (665), CPU time= 0.01 sec
 Commands  initialized (462), CPU time= 0.01 sec, 486 directives.
 Default parameters read. Elapsed time= 0.04 sec

 Checking input...
 Passed
1


                                         ***  PROGRAM SYSTEM MOLPRO  ***
                         Copyright, University College Cardiff Consultants Limited, 2008

                                    Version 2010.1 linked 9 Dec 2014 15:06:28 


 **********************************************************************************************************************************
 LABEL *   co2h2o                                                                        
 Linux-2.6.32-504.el6.x86_64/node4(x86_64) 64 bit mpp version                            DATE: 12-Dec-16          TIME: 14:53:22  
 **********************************************************************************************************************************

 Patch level:      19
 **********************************************************************************************************************************

 Variable memory set to  100000000 words,  buffer space   230000 words

 SETTING BASIS          =    AVTZ
 SETTING GEOMTYPE       =    XYZ

Geometry recognized as XYZ



 Recomputing integrals since basis changed


 Using spherical harmonics

 Library entry O      S aug-cc-pVTZ          selected for orbital group  1
 Library entry O      P aug-cc-pVTZ          selected for orbital group  1
 Library entry O      D aug-cc-pVTZ          selected for orbital group  1
 Library entry O      F aug-cc-pVTZ          selected for orbital group  1
 Library entry H      S aug-cc-pVTZ          selected for orbital group  2
 Library entry H      P aug-cc-pVTZ          selected for orbital group  2
 Library entry H      D aug-cc-pVTZ          selected for orbital group  2
 Library entry C      S aug-cc-pVTZ          selected for orbital group  3
 Library entry C      P aug-cc-pVTZ          selected for orbital group  3
 Library entry C      D aug-cc-pVTZ          selected for orbital group  3
 Library entry C      F aug-cc-pVTZ          selected for orbital group  3

1PROGRAM * SEWARD (Integral evaluation for generally contracted gaussian basis sets)     Author: Roland Lindh, 1990

 Geometry written to block  1 of record 700


 Point group  C2v 



 ATOMIC COORDINATES

 NR  ATOM    CHARGE       X              Y              Z

   1  O       8.00    0.006632939    2.196063965    0.000000000
   2  O       8.00    0.006632939   -2.196063965    0.000000000
   3  O       8.00    4.005614686    0.000000000    0.000000000
   4  H       1.00    5.113406160    0.000000000    1.433415852
   5  H       1.00    5.113406160    0.000000000   -1.433415852
   6  C       6.00    0.037189810    0.000000000    0.000000000

 Bond lengths in Bohr (Angstrom)

 1-6  2.196276545  2-6  2.196276545  3-4  1.811596797  3-5  1.811596797
     (1.162219492)     (1.162219492)     (0.958655737)     (0.958655737)

 Bond angles

  1-6-2  178.40563223   4-3-5  104.60391356

 NUCLEAR CHARGE:                   32
 NUMBER OF PRIMITIVE AOS:         322
 NUMBER OF SYMMETRY AOS:          282
 NUMBER OF CONTRACTIONS:          230   (  84A1  +  59B1  +  54B2  +  33A2  )
 NUMBER OF CORE ORBITALS:           4   (   3A1  +   1B1  +   0B2  +   0A2  )
 NUMBER OF VALENCE ORBITALS:       18   (   8A1  +   5B1  +   4B2  +   1A2  )


 NUCLEAR REPULSION ENERGY  115.46335691


 Eigenvalues of metric

         1 0.100E-03 0.241E-03 0.327E-03 0.777E-03 0.118E-02 0.205E-02 0.272E-02 0.309E-02
         2 0.329E-03 0.738E-03 0.169E-02 0.282E-02 0.346E-02 0.607E-02 0.944E-02 0.164E-01
         3 0.270E-03 0.143E-02 0.287E-02 0.348E-02 0.595E-02 0.620E-02 0.109E-01 0.123E-01
         4 0.346E-02 0.111E-01 0.291E-01 0.316E-01 0.526E-01 0.665E-01 0.875E-01 0.133E+00


 Contracted 2-electron integrals neglected if value below      1.0D-11
 AO integral compression algorithm  1   Integral accuracy      1.0D-11

     442.761 MB (compressed) written to integral file ( 49.6%)

     Node minimum: 129.499 MB, node maximum: 170.394 MB


 NUMBER OF SORTED TWO-ELECTRON INTEGRALS:   29979201.     BUFFER LENGTH:  32768
 NUMBER OF SEGMENTS:   2  SEGMENT LENGTH:   15996954      RECORD LENGTH: 524288

 Memory used in sort:      16.55 MW

 SORT1 READ   111555100. AND WROTE    29065054. INTEGRALS IN     84 RECORDS. CPU TIME:     3.02 SEC, REAL TIME:     3.39 SEC
 SORT2 READ    87216765. AND WROTE    89930217. INTEGRALS IN   1635 RECORDS. CPU TIME:     0.71 SEC, REAL TIME:     1.02 SEC

 Node minimum:    29974277.  Node maximum:    29979201. integrals

 OPERATOR DM      FOR CENTER  0  COORDINATES:    0.000000    0.000000    0.000000


 **********************************************************************************************************************************
 DATASETS  * FILE   NREC   LENGTH (MB)   RECORD NAMES
              1      18        3.23       500      610      700      900      950      970     1000      129      960     1100   
                                          VAR    BASINP    GEOM    SYMINP    ZMAT    AOBASIS   BASIS     P2S    ABASIS      S 
                                         1400     1410     1200     1210     1080     1600     1650     1700   
                                           T        V       H0       H01     AOSYM     SMH    MOLCAS    OPER   

 PROGRAMS   *        TOTAL       INT
 CPU TIMES  *         6.56      6.49
 REAL TIME  *         7.44 SEC
 DISK USED  *         1.48 GB      
 GA USED    *         0.00 MB       (max)       0.00 MB       (current)
 **********************************************************************************************************************************

1PROGRAM * RHF-SCF (CLOSED SHELL)       Authors: W. Meyer, H.-J. Werner


 NUMBER OF ELECTRONS:      16+   16-
 CONVERGENCE THRESHOLDS:    1.00E-05 (Density)    1.00E-07 (Energy)
 MAX. NUMBER OF ITERATIONS:       60
 INTERPOLATION TYPE:            DIIS
 INTERPOLATION STEPS:              2 (START)      1 (STEP)
 LEVEL SHIFTS:                  0.00 (CLOSED)  0.00 (OPEN) 



 Orbital guess generated from atomic densities. Full valence occupancy:   11   6   4   1

 Molecular orbital dump at record        2100.2

 Initial alpha occupancy:   8   5   2   1
 Initial beta  occupancy:   8   5   2   1
 Wave function symmetry:    1

 ITERATION    DDIFF          GRAD             ENERGY        2-EL.EN.            DIPOLE MOMENTS         DIIS
    1      0.000D+00      0.000D+00      -263.64291741    427.957238    1.40530    0.00000    0.00000    0
    2      0.000D+00      0.865D-02      -263.70703431    423.140766    1.13706    0.00000    0.00000    1
    3      0.142D-01      0.567D-02      -263.74462187    425.382552    1.13160    0.00000    0.00000    2
    4      0.558D-02      0.588D-03      -263.74517505    425.310168    1.12163    0.00000    0.00000    3
    5      0.740D-03      0.196D-03      -263.74524534    425.252262    1.11368    0.00000    0.00000    4
    6      0.288D-03      0.742D-04      -263.74525460    425.276104    1.11338    0.00000    0.00000    5
    7      0.936D-04      0.151D-04      -263.74525536    425.268291    1.11285    0.00000    0.00000    6
    8      0.302D-04      0.329D-05      -263.74525540    425.269890    1.11288    0.00000    0.00000    7
    9      0.688D-05      0.120D-05      -263.74525540    425.269507    1.11287    0.00000    0.00000    0

 Final occupancy:   8   5   2   1

 !RHF STATE 1.1 Energy               -263.745255402572
 Nuclear energy                       115.46335691
 One-electron energy                 -591.84336561
 Two-electron energy                  212.63475330
 Virial quotient                       -1.00088176
 !RHF STATE 1.1 Dipole moment           1.11287463     0.00000000     0.00000000
 Dipole moment /Debye                   2.82845990     0.00000000     0.00000000

 Orbital energies:

         1.1          2.1          3.1          4.1          5.1          6.1          7.1          8.1          9.1         10.1
    -20.607953   -20.583708   -11.427718    -1.495551    -1.380455    -0.768727    -0.719759    -0.571339     0.021697     0.070530

         1.2          2.2          3.2          4.2          5.2          6.2          7.2
    -20.607996    -1.439719    -0.706935    -0.559225    -0.490127     0.086311     0.161856

         1.3          2.3          3.3          4.3
     -0.746151    -0.675822     0.043659     0.095317

         1.4          2.4          3.4
     -0.505746     0.170175     0.277530


 **********************************************************************************************************************************
 DATASETS  * FILE   NREC   LENGTH (MB)   RECORD NAMES
              1      18        3.25       500      610      700      900      950      970     1000      129      960     1100   
                                          VAR    BASINP    GEOM    SYMINP    ZMAT    AOBASIS   BASIS     P2S    ABASIS      S 
                                         1400     1410     1200     1210     1080     1600     1650     1700   
                                           T        V       H0       H01     AOSYM     SMH    MOLCAS    OPER   

              2       3        0.67       700     1000     2100   
                                         GEOM     BASIS     RHF  

 PROGRAMS   *        TOTAL        HF       INT
 CPU TIMES  *         7.87      1.31      6.49
 REAL TIME  *         8.90 SEC
 DISK USED  *         1.50 GB      
 SF USED    *         0.06 MB      
 GA USED    *         0.00 MB       (max)       0.00 MB       (current)
 **********************************************************************************************************************************


1PROGRAM * CCSD (Closed-shell coupled cluster)     Authors: C. Hampel, H.-J. Werner, 1991, M. Deegan, P.J. Knowles, 1992

                                  CCSD-F12 implementation by  H.-J. Werner, 2007

                   Density fitting integral evaluation by F.R. Manby, 2003,2007, G. Knizia, 2010

 Basis set CC-PVTZ/JKFIT generated.      Number of basis functions:   376 
 Basis set AUG-CC-PVTZ/MP2FIT generated. Number of basis functions:   516 

 Convergence thresholds:  THRVAR = 1.00D-08  THRDEN = 1.00D-06

 CCSD(T)     terms to be evaluated (factor= 1.000)


 Number of core orbitals:           4 (   3   1   0   0 )
 Number of closed-shell orbitals:  12 (   5   4   2   1 )
 Number of external orbitals:     214 (  76  54  52  32 )

 Molecular orbitals read from record     2100.2  Type=RHF/CANONICAL (state 1.1)

 MP2-F12 correlation treatment (H.-J. Werner, 2006)
 --------------------------------------------------

 Using MP2-F12 with ansatz 3C(FIX)

 Using projected zeroth-order Hamiltonian (+Z)

 FOCKRIB=T FOCKRIC=T FOCKRIP=T CABSP=T CABSA=T CABSK=T CABSF=T GBC=F EBC=F DMAT=T NOFIK=T NOPAO=1 SOLVE=-1  USEPAO=0
 EXCH_A= T EXCH_B= F EXCH_C= F EXCH_P= F
 
 Geminal basis:    OPTFULL  GEM_TYPE=SLATER  BETA=1.0  NGEM=6

 Optimizing Gaussian exponents for each gem_beta

 Geminal optimization for beta= 1.0000
 Weight function:   m=0, omega= 1.4646

 Augmented Hessian optimization of geminal fit. Trust ratio= 0.40000
 Convergence reached after   2 iterations. Final gradient= 8.24D-16, Step= 4.32D-06, Delta= 1.28D-09
 
 Alpha:                 0.19532     0.81920     2.85917     9.50073    35.69989   197.79328
 Coeff:                 0.27070     0.30552     0.18297     0.10986     0.06810     0.04224
 

 Symmetry turned off. Reference energy:       -263.745255402572

 All pairs explicitly correlated. Number of r12-pairs:           78
 
 AO(A)-basis ORBITAL           loaded. Number of functions:     230
 RI(R)-basis CC-PVTZ/JKFIT     loaded. Number of functions:     376
 DF-basis CC-PVTZ/JKFIT        loaded. Number of functions:     376

 Screening thresholds:   THRAO=  1.00D-10  THRMO=  1.00D-09  THRPROD=  1.00D-09
                         THRSW=  1.00D-05  THROV=  1.00D-12  THRF12=   1.00D-08

 CPU time for Fock operators                      1.06 sec
 
 Construction of ABS:
 Smallest eigenvalue of S          2.21E-04  (threshold= 1.00E-08)
 Ratio eigmin/eigmax               1.57E-06  (threshold= 1.00E-09)
 Smallest eigenvalue of S kept     2.21E-04  (threshold= 2.21E-04, 0 functions deleted, 376 kept)
 
 Construction of CABS:
 Smallest eigenvalue of S          2.22E-08  (threshold= 1.00E-08)
 Ratio eigmin/eigmax               2.22E-08  (threshold= 1.00E-09)
 Smallest eigenvalue of S kept     2.22E-08  (threshold= 2.22E-08, 0 functions deleted, 376 kept)
 
 CPU time for CABS singles                        0.18 sec

 CABS-singles contribution of  -0.01594719 patched into reference energy.
 New reference energy        -263.76120259
 
 AO(A)-basis ORBITAL           loaded. Number of functions:     230
 RI(R)-basis CC-PVTZ/JKFIT     loaded. Number of functions:     376
 DF-basis AUG-CC-PVTZ/MP2FIT   loaded. Number of functions:     516

 Screening thresholds:   THRAO=  1.00D-10  THRMO=  1.00D-09  THRPROD=  1.00D-09
                         THRSW=  1.00D-05  THROV=  1.00D-12  THRF12=   1.00D-08

 CPU time for 3-index integral evaluation         3.46 sec
 CPU time for first  half transformation          0.34 sec ( 8384.7 MFLOP/sec)
 CPU time for second half transformation          0.01 sec (11216.6 MFLOP/sec)
 CPU time for sorting                             0.16 sec
 CPU time for fitting                             0.06 sec (23217.5 MFLOP/sec)
 CPU time for tilde quantities                    0.06 sec (30814.7 MFLOP/sec)
 CPU time for assembly                            0.83 sec (28467.3 MFLOP/sec)
 CPU time for tranop_f12                          1.01 sec (29962.3 MFLOP/sec)
 CPU time for f12 integrals (total)               8.23 sec
 F12-matrices built in  3 passes.
 F12-matrices built in  3 passes.
 F12-matrices built in  3 passes.
 F12-matrices built in  3 passes.
 FC-matrix built in  3 passes.
 CPU time for f12 matrices (total)                0.58 sec

 Diagonal F12 approximation with fixed coefficients:  TSING= 0.500,  TTRIP= 0.250 (scaled by -1/beta)

 DF-MP2-F12 energy corrections:
 ------------------------------
 Approx.                                    Singlet             Triplet             Total
 DF-MP2-F12/3*C(DX,FIX)                -0.097661928955     -0.017233481276     -0.114895410231
 DF-MP2-F12/3*C(FIX)                   -0.079954282189     -0.013706367405     -0.093660649595
 DF-MP2-F12/3C(FIX)                    -0.080329863360     -0.013763847408     -0.094093710767

 DF-MP2-F12 correlation energies:
 --------------------------------
 Approx.                                    Singlet             Triplet             Ecorr            Total Energy
 DF-MP2                                -0.538275785397     -0.348431157490     -0.886706942887   -264.647909531527
 DF-MP2-F12/3*C(DX,FIX)                -0.635937714351     -0.365664638766     -1.001602353117   -264.762804941757
 DF-MP2-F12/3*C(FIX)                   -0.618230067586     -0.362137524896     -0.980367592481   -264.741570181121
 DF-MP2-F12/3C(FIX)                    -0.618605648756     -0.362195004898     -0.980800653654   -264.742003242294

 SCS-DF-MP2 energies (F_SING= 1.20000  F_TRIP= 0.62222  F_PARALLEL= 0.33333):
 ----------------------------------------------------------------------------
 SCS-DF-MP2                            -0.862732551581   -264.623935140221
 SCS-DF-MP2-F12/3*C(DX,FIX)            -0.990649921343   -264.751852509983
 SCS-DF-MP2-F12/3*C(FIX)               -0.967206096593   -264.728408685233
 SCS-DF-MP2-F12/3C(FIX)                -0.967692559333   -264.728895147973

 Symmetry restored.
 Symmetry transformation completed.

 Number of N-1 electron functions:              12
 Number of N-2 electron functions:              78
 Number of singly external CSFs:               732
 Number of doubly external CSFs:            836016
 Total number of CSFs:                      836749

 Pair and operator lists are different

 Length of J-op  integral file:             462.26 MB
 Length of K-op  integral file:             502.03 MB
 Length of 3-ext integral record:             0.00 MB

 Memory could be reduced to 38.69 Mwords without degradation in triples

 Integral transformation finished. Total CPU:   1.58 sec, npass=  1  Memory used:   6.07 MW

 Reference energy:                   -263.76120259

 Adding F12 terms to K(Cij), methodcc=6,  factor=1.0

 ITER.      SQ.NORM     CORR.ENERGY   TOTAL ENERGY   ENERGY CHANGE        DEN1      VAR(S)    VAR(P)  DIIS     TIME
   1      1.20147627    -0.86806331  -264.62926590     0.01864928     0.04714672  0.73D-02  0.55D-02  1  1    13.07
   2      1.21579991    -0.86393097  -264.62513356     0.00413234    -0.02020046  0.96D-04  0.58D-03  2  2    14.11
   3      1.22122428    -0.86407320  -264.62527578    -0.00014223    -0.00229062  0.14D-03  0.31D-04  3  3    15.15
   4      1.22413117    -0.86393912  -264.62514171     0.00013407    -0.00142345  0.95D-05  0.42D-05  4  4    16.25
   5      1.22525080    -0.86390304  -264.62510563     0.00003608    -0.00037707  0.95D-06  0.32D-06  5  5    17.35
   6      1.22544664    -0.86387399  -264.62507658     0.00002905    -0.00000849  0.76D-07  0.35D-07  6  6    18.45
   7      1.22548923    -0.86387088  -264.62507347     0.00000311    -0.00000744  0.11D-07  0.50D-08  6  2    19.57
   8      1.22549210    -0.86387051  -264.62507310     0.00000037     0.00000196  0.95D-09  0.52D-09  6  1    20.67
   9      1.22549292    -0.86387069  -264.62507328    -0.00000019     0.00000090  0.13D-09  0.52D-10  6  4    21.78

 Norm of t1 vector:      0.10883436      S-energy:     0.00000011      T1 diagnostic:  0.01570889
                                                                       D1 diagnostic:  0.04916983

 Adding energy correction from Wij-K(Fij), methodcc=6  factor=1.0
 
  CCSD correlation energy              -0.863870693248
  MP2-F12 correction (uncoupled)       -0.092888753284
  C*T doubles correction               -0.001501656956
  f12b correction                       0.015452538302


 Total CPU time for triples:     29.30 sec


 RESULTS
 =======

  Reference energy                   -263.745255402572
  F12 singles correction               -0.015947186068

 F12 singles corrections added to reference energy

  New reference energy               -263.761202588640

  F12a singlet correction              -0.080527921028
  F12a triplet correction              -0.013862489213
  F12a total correction                -0.094390410241

 F12a corrections for ansatz F12/3C(FIX) added to CCSD energy
 
  CCSD-F12a singlet pair energy        -0.641623629895
  CCSD-F12a triplet pair energy        -0.316637579406
  CCSD-F12a correlation energy         -0.958261103489

  Triples (T) contribution             -0.038524589397
  Total correlation energy             -0.996785692886

  CCSD-F12a total energy             -264.719463692129
  CCSD[T]-F12a energy                -264.760568082480
  CCSD-T-F12a energy                 -264.757064713878
 !CCSD(T)-F12a total energy          -264.757988281526

 F12b corrections for ansatz F12/3C(FIX) added to CCSD(T)-F12a energy

  CCSD-F12b singlet pair energy        -0.627432440283
  CCSD-F12b triplet pair energy        -0.315376230716
  CCSD-F12b correlation energy         -0.942808565187

  Triples (T) contribution             -0.038524589397
  Total correlation energy             -0.981333154584

  CCSD-F12b total energy             -264.704011153827
  CCSD[T]-F12b energy                -264.745115544178
  CCSD-T-F12b energy                 -264.741612175576
 !CCSD(T)-F12b total energy          -264.742535743224

 Timing summary (sec):

 STEP                 CPU(USER)    SYS     CPU(TOT)    WALL
 Transformation          1.59      0.23      1.82      1.83
 CCSD iterations         9.71      0.84     10.55     12.10
 Triples                29.30      0.82     30.12     30.58
 MP2-F12                10.49      1.19     11.68     11.68
 F12b energy             0.68      0.03      0.71      0.70

 Program statistics:

 Available memory in ccsd:                99998934
 Min. memory needed in ccsd:               2244783
 Max. memory used in ccsd:                 3005571
 Max. memory used in cckext:               2769663 (10 integral passes)



 **********************************************************************************************************************************
 DATASETS  * FILE   NREC   LENGTH (MB)   RECORD NAMES
              1      20      137.19       500      610      700      900      950      970     1000      129      960     1100   
                                          VAR    BASINP    GEOM    SYMINP    ZMAT    AOBASIS   BASIS     P2S    ABASIS      S 
                                         1400     1410     1200     1210     1080     1600     1650     1700      960(1)  1380   
                                           T        V       H0       H01     AOSYM     SMH    MOLCAS    OPER    ABASIS    JKOP   

              2       5        0.97       700     1000     2100     7360     7350   
                                         GEOM     BASIS     RHF    F12ABS    EF12   

 PROGRAMS   *        TOTAL   CCSD(T)        HF       INT
 CPU TIMES  *        59.75     51.88      1.31      6.49
 REAL TIME  *        66.05 SEC
 DISK USED  *         1.72 GB      
 SF USED    *         1.34 GB      
 GA USED    *         2.40 MB       (max)       0.00 MB       (current)
 **********************************************************************************************************************************

     CCSD(T)-F12        HF-SCF  
   -264.74253574   -263.74525540
 **********************************************************************************************************************************
 Variable memory released
