
 Primary working directories    : /scratch/kee
 Secondary working directories  : /scratch/kee
 Wavefunction directory         : /home/kee/wfu/
 Main file repository           : /scratch/kee/

 ARCHNAME  : Linux/x86_64
 FC        : /opt/intel/composer_xe_2015.0.090/bin/intel64/ifort
 FCVERSION : 15.0.0
 BLASLIB   : -L/opt/intel/mkl/lib/intel64 -lmkl_intel_ilp64 -lmkl_sequential -lmkl_core
 id        : emory

 Nodes     nprocs
 node24       3
 Number of processes for MPI-2 version of Molpro:   nprocs(total)=    4   nprocs(compute)=    3   nprocs(helper)=    1
 ga_uses_ma=false, calling ma_init with nominal heap.
 GA-space will be limited to   8.0 MW (determined by -G option)

 Using customized tuning parameters: mindgm=7; mindgv=32; mindgc=1; mindgr=1; noblas=0; mincuda=1000; minvec=7
 default implementation of scratch files=sf  

 ***,co2h2o
 memory,100,m
 basis avtz
 geomtype = xyz
 geometry = {
 6
       0.00000000
 O     0.00351000    1.16210700    0.00000000
 O     0.00351000   -1.16210700    0.00000000
 O     6.56968000    0.00000000    0.00000000
 H     7.15589800    0.00000000    0.75853100
 H     7.15589800    0.00000000   -0.75853100
 C     0.01968000    0.00000000    0.00000000
 }
 hf
 ccsd(t)-f12
 ---

 Variables initialized (665), CPU time= 0.00 sec
 Commands  initialized (462), CPU time= 0.01 sec, 486 directives.
 Default parameters read. Elapsed time= 0.03 sec

 Checking input...
 Passed
1


                                         ***  PROGRAM SYSTEM MOLPRO  ***
                         Copyright, University College Cardiff Consultants Limited, 2008

                                    Version 2010.1 linked 9 Dec 2014 15:06:28 


 **********************************************************************************************************************************
 LABEL *   co2h2o                                                                        
 Linux-2.6.32-504.el6.x86_64/node24(x86_64) 64 bit mpp version                           DATE: 12-Dec-16          TIME: 14:11:19  
 **********************************************************************************************************************************

 Patch level:      19
 **********************************************************************************************************************************

 Variable memory set to  100000000 words,  buffer space   230000 words

 SETTING BASIS          =    AVTZ
 SETTING GEOMTYPE       =    XYZ

Geometry recognized as XYZ



 Recomputing integrals since basis changed


 Using spherical harmonics

 Library entry O      S aug-cc-pVTZ          selected for orbital group  1
 Library entry O      P aug-cc-pVTZ          selected for orbital group  1
 Library entry O      D aug-cc-pVTZ          selected for orbital group  1
 Library entry O      F aug-cc-pVTZ          selected for orbital group  1
 Library entry H      S aug-cc-pVTZ          selected for orbital group  2
 Library entry H      P aug-cc-pVTZ          selected for orbital group  2
 Library entry H      D aug-cc-pVTZ          selected for orbital group  2
 Library entry C      S aug-cc-pVTZ          selected for orbital group  3
 Library entry C      P aug-cc-pVTZ          selected for orbital group  3
 Library entry C      D aug-cc-pVTZ          selected for orbital group  3
 Library entry C      F aug-cc-pVTZ          selected for orbital group  3

1PROGRAM * SEWARD (Integral evaluation for generally contracted gaussian basis sets)     Author: Roland Lindh, 1990

 Geometry written to block  1 of record 700


 Point group  C2v 



 ATOMIC COORDINATES

 NR  ATOM    CHARGE       X              Y              Z

   1  O       8.00    0.006632939    2.196063965    0.000000000
   2  O       8.00    0.006632939   -2.196063965    0.000000000
   3  O       8.00   12.414895971    0.000000000    0.000000000
   4  H       1.00   13.522687444    0.000000000    1.433415852
   5  H       1.00   13.522687444    0.000000000   -1.433415852
   6  C       6.00    0.037189810    0.000000000    0.000000000

 Bond lengths in Bohr (Angstrom)

 1-6  2.196276545  2-6  2.196276545  3-4  1.811596797  3-5  1.811596797
     (1.162219492)     (1.162219492)     (0.958655737)     (0.958655737)

 Bond angles

  1-6-2  178.40563223   4-3-5  104.60391356

 NUCLEAR CHARGE:                   32
 NUMBER OF PRIMITIVE AOS:         322
 NUMBER OF SYMMETRY AOS:          282
 NUMBER OF CONTRACTIONS:          230   (  84A1  +  59B1  +  54B2  +  33A2  )
 NUMBER OF CORE ORBITALS:           4   (   3A1  +   1B1  +   0B2  +   0A2  )
 NUMBER OF VALENCE ORBITALS:       18   (   8A1  +   5B1  +   4B2  +   1A2  )


 NUCLEAR REPULSION ENERGY   84.70752593


 Eigenvalues of metric

         1 0.374E-03 0.392E-03 0.899E-03 0.174E-02 0.317E-02 0.320E-02 0.403E-02 0.479E-02
         2 0.349E-03 0.922E-03 0.175E-02 0.346E-02 0.589E-02 0.744E-02 0.201E-01 0.213E-01
         3 0.394E-03 0.166E-02 0.318E-02 0.508E-02 0.622E-02 0.100E-01 0.136E-01 0.156E-01
         4 0.348E-02 0.124E-01 0.296E-01 0.363E-01 0.561E-01 0.679E-01 0.110E+00 0.139E+00


 Contracted 2-electron integrals neglected if value below      1.0D-11
 AO integral compression algorithm  1   Integral accuracy      1.0D-11

     198.705 MB (compressed) written to integral file ( 24.2%)

     Node minimum: 60.555 MB, node maximum: 75.235 MB


 NUMBER OF SORTED TWO-ELECTRON INTEGRALS:   29979201.     BUFFER LENGTH:  32768
 NUMBER OF SEGMENTS:   2  SEGMENT LENGTH:   15996954      RECORD LENGTH: 524288

 Memory used in sort:      16.55 MW

 SORT1 READ   102584524. AND WROTE    12898100. INTEGRALS IN     38 RECORDS. CPU TIME:     1.91 SEC, REAL TIME:     2.11 SEC
 SORT2 READ    38713594. AND WROTE    89930217. INTEGRALS IN    720 RECORDS. CPU TIME:     0.48 SEC, REAL TIME:     0.64 SEC

 Node minimum:    29974277.  Node maximum:    29979201. integrals

 OPERATOR DM      FOR CENTER  0  COORDINATES:    0.000000    0.000000    0.000000


 **********************************************************************************************************************************
 DATASETS  * FILE   NREC   LENGTH (MB)   RECORD NAMES
              1      18        3.23       500      610      700      900      950      970     1000      129      960     1100   
                                          VAR    BASINP    GEOM    SYMINP    ZMAT    AOBASIS   BASIS     P2S    ABASIS      S 
                                         1400     1410     1200     1210     1080     1600     1650     1700   
                                           T        V       H0       H01     AOSYM     SMH    MOLCAS    OPER   

 PROGRAMS   *        TOTAL       INT
 CPU TIMES  *         4.43      4.35
 REAL TIME  *         5.42 SEC
 DISK USED  *       663.18 MB      
 GA USED    *         0.00 MB       (max)       0.00 MB       (current)
 **********************************************************************************************************************************

1PROGRAM * RHF-SCF (CLOSED SHELL)       Authors: W. Meyer, H.-J. Werner


 NUMBER OF ELECTRONS:      16+   16-
 CONVERGENCE THRESHOLDS:    1.00E-05 (Density)    1.00E-07 (Energy)
 MAX. NUMBER OF ITERATIONS:       60
 INTERPOLATION TYPE:            DIIS
 INTERPOLATION STEPS:              2 (START)      1 (STEP)
 LEVEL SHIFTS:                  0.00 (CLOSED)  0.00 (OPEN) 



 Orbital guess generated from atomic densities. Full valence occupancy:   11   6   4   1

 Molecular orbital dump at record        2100.2

 Initial alpha occupancy:   8   5   2   1
 Initial beta  occupancy:   8   5   2   1
 Wave function symmetry:    1

 ITERATION    DDIFF          GRAD             ENERGY        2-EL.EN.            DIPOLE MOMENTS         DIIS
    1      0.000D+00      0.000D+00      -263.66060833    365.093007    1.18063    0.00000    0.00000    0
    2      0.000D+00      0.888D-02      -263.72585200    360.475475    0.69481    0.00000    0.00000    1
    3      0.143D-01      0.603D-02      -263.76906756    363.043375    0.81470    0.00000    0.00000    2
    4      0.587D-02      0.568D-03      -263.76956268    362.832153    0.81812    0.00000    0.00000    3
    5      0.695D-03      0.165D-03      -263.76962073    362.833738    0.81276    0.00000    0.00000    4
    6      0.258D-03      0.667D-04      -263.76962792    362.848336    0.81348    0.00000    0.00000    5
    7      0.856D-04      0.163D-04      -263.76962865    362.839951    0.81303    0.00000    0.00000    6
    8      0.281D-04      0.359D-05      -263.76962870    362.841256    0.81304    0.00000    0.00000    7
    9      0.768D-05      0.121D-05      -263.76962870    362.841060    0.81301    0.00000    0.00000    0

 Final occupancy:   8   5   2   1

 !RHF STATE 1.1 Energy               -263.769628701390
 Nuclear energy                        84.70752593
 One-electron energy                 -529.89768448
 Two-electron energy                  181.42052985
 Virial quotient                       -1.00182857
 !RHF STATE 1.1 Dipole moment           0.81301331     0.00000000     0.00000000
 Dipole moment /Debye                   2.06633837     0.00000000     0.00000000

 Orbital energies:

         1.1          2.1          3.1          4.1          5.1          6.1          7.1          8.1          9.1         10.1
    -20.648636   -20.568486   -11.457506    -1.526294    -1.353896    -0.796611    -0.710303    -0.585686     0.028184     0.052997

         1.2          2.2          3.2          4.2          5.2          6.2          7.2
    -20.648682    -1.473221    -0.738864    -0.540004    -0.511324     0.082435     0.149796

         1.3          2.3          3.3          4.3
     -0.718337    -0.710398     0.046672     0.078068

         1.4          2.4          3.4
     -0.540065     0.167530     0.264472


 **********************************************************************************************************************************
 DATASETS  * FILE   NREC   LENGTH (MB)   RECORD NAMES
              1      18        3.25       500      610      700      900      950      970     1000      129      960     1100   
                                          VAR    BASINP    GEOM    SYMINP    ZMAT    AOBASIS   BASIS     P2S    ABASIS      S 
                                         1400     1410     1200     1210     1080     1600     1650     1700   
                                           T        V       H0       H01     AOSYM     SMH    MOLCAS    OPER   

              2       3        0.67       700     1000     2100   
                                         GEOM     BASIS     RHF  

 PROGRAMS   *        TOTAL        HF       INT
 CPU TIMES  *         5.68      1.25      4.35
 REAL TIME  *         6.75 SEC
 DISK USED  *       680.58 MB      
 SF USED    *         0.06 MB      
 GA USED    *         0.00 MB       (max)       0.00 MB       (current)
 **********************************************************************************************************************************


1PROGRAM * CCSD (Closed-shell coupled cluster)     Authors: C. Hampel, H.-J. Werner, 1991, M. Deegan, P.J. Knowles, 1992

                                  CCSD-F12 implementation by  H.-J. Werner, 2007

                   Density fitting integral evaluation by F.R. Manby, 2003,2007, G. Knizia, 2010

 Basis set CC-PVTZ/JKFIT generated.      Number of basis functions:   376 
 Basis set AUG-CC-PVTZ/MP2FIT generated. Number of basis functions:   516 

 Convergence thresholds:  THRVAR = 1.00D-08  THRDEN = 1.00D-06

 CCSD(T)     terms to be evaluated (factor= 1.000)


 Number of core orbitals:           4 (   3   1   0   0 )
 Number of closed-shell orbitals:  12 (   5   4   2   1 )
 Number of external orbitals:     214 (  76  54  52  32 )

 Molecular orbitals read from record     2100.2  Type=RHF/CANONICAL (state 1.1)

 MP2-F12 correlation treatment (H.-J. Werner, 2006)
 --------------------------------------------------

 Using MP2-F12 with ansatz 3C(FIX)

 Using projected zeroth-order Hamiltonian (+Z)

 FOCKRIB=T FOCKRIC=T FOCKRIP=T CABSP=T CABSA=T CABSK=T CABSF=T GBC=F EBC=F DMAT=T NOFIK=T NOPAO=1 SOLVE=-1  USEPAO=0
 EXCH_A= T EXCH_B= F EXCH_C= F EXCH_P= F
 
 Geminal basis:    OPTFULL  GEM_TYPE=SLATER  BETA=1.0  NGEM=6

 Optimizing Gaussian exponents for each gem_beta

 Geminal optimization for beta= 1.0000
 Weight function:   m=0, omega= 1.4646

 Augmented Hessian optimization of geminal fit. Trust ratio= 0.40000
 Convergence reached after   2 iterations. Final gradient= 8.24D-16, Step= 4.32D-06, Delta= 1.28D-09
 
 Alpha:                 0.19532     0.81920     2.85917     9.50073    35.69989   197.79328
 Coeff:                 0.27070     0.30552     0.18297     0.10986     0.06810     0.04224
 

 Symmetry turned off. Reference energy:       -263.769628701390

 All pairs explicitly correlated. Number of r12-pairs:           78
 
 AO(A)-basis ORBITAL           loaded. Number of functions:     230
 RI(R)-basis CC-PVTZ/JKFIT     loaded. Number of functions:     376
 DF-basis CC-PVTZ/JKFIT        loaded. Number of functions:     376

 Screening thresholds:   THRAO=  1.00D-10  THRMO=  1.00D-09  THRPROD=  1.00D-09
                         THRSW=  1.00D-05  THROV=  1.00D-12  THRF12=   1.00D-08

 CPU time for Fock operators                      1.08 sec
 
 Construction of ABS:
 Smallest eigenvalue of S          2.57E-04  (threshold= 1.00E-08)
 Ratio eigmin/eigmax               1.83E-06  (threshold= 1.00E-09)
 Smallest eigenvalue of S kept     2.57E-04  (threshold= 2.57E-04, 0 functions deleted, 376 kept)
 
 Construction of CABS:
 Smallest eigenvalue of S          2.30E-08  (threshold= 1.00E-08)
 Ratio eigmin/eigmax               2.30E-08  (threshold= 1.00E-09)
 Smallest eigenvalue of S kept     2.30E-08  (threshold= 2.30E-08, 0 functions deleted, 376 kept)
 
 CPU time for CABS singles                        0.36 sec

 CABS-singles contribution of  -0.01592269 patched into reference energy.
 New reference energy        -263.78555139
 
 AO(A)-basis ORBITAL           loaded. Number of functions:     230
 RI(R)-basis CC-PVTZ/JKFIT     loaded. Number of functions:     376
 DF-basis AUG-CC-PVTZ/MP2FIT   loaded. Number of functions:     516

 Screening thresholds:   THRAO=  1.00D-10  THRMO=  1.00D-09  THRPROD=  1.00D-09
                         THRSW=  1.00D-05  THROV=  1.00D-12  THRF12=   1.00D-08

 CPU time for 3-index integral evaluation         2.11 sec
 CPU time for first  half transformation          0.30 sec ( 8365.2 MFLOP/sec)
 CPU time for second half transformation          0.02 sec ( 4989.5 MFLOP/sec)
 CPU time for sorting                             0.17 sec
 CPU time for fitting                             0.05 sec (25411.5 MFLOP/sec)
 CPU time for tilde quantities                    0.07 sec (26412.6 MFLOP/sec)
 CPU time for assembly                            0.90 sec (24981.1 MFLOP/sec)
 CPU time for tranop_f12                          1.04 sec (26308.8 MFLOP/sec)
 CPU time for f12 integrals (total)               7.61 sec
 F12-matrices built in  3 passes.
 F12-matrices built in  3 passes.
 F12-matrices built in  3 passes.
 F12-matrices built in  3 passes.
 FC-matrix built in  3 passes.
 CPU time for f12 matrices (total)                0.54 sec

 Diagonal F12 approximation with fixed coefficients:  TSING= 0.500,  TTRIP= 0.250 (scaled by -1/beta)

 DF-MP2-F12 energy corrections:
 ------------------------------
 Approx.                                    Singlet             Triplet             Total
 DF-MP2-F12/3*C(DX,FIX)                -0.097447233456     -0.016933127818     -0.114380361274
 DF-MP2-F12/3*C(FIX)                   -0.079863222320     -0.013395246336     -0.093258468656
 DF-MP2-F12/3C(FIX)                    -0.080224052554     -0.013418563134     -0.093642615687

 DF-MP2-F12 correlation energies:
 --------------------------------
 Approx.                                    Singlet             Triplet             Ecorr            Total Energy
 DF-MP2                                -0.537732579848     -0.343078800084     -0.880811379932   -264.666362774120
 DF-MP2-F12/3*C(DX,FIX)                -0.635179813304     -0.360011927902     -0.995191741205   -264.780743135394
 DF-MP2-F12/3*C(FIX)                   -0.617595802168     -0.356474046420     -0.974069848588   -264.759621242777
 DF-MP2-F12/3C(FIX)                    -0.617956632402     -0.356497363217     -0.974453995619   -264.760005389808

 SCS-DF-MP2 energies (F_SING= 1.20000  F_TRIP= 0.62222  F_PARALLEL= 0.33333):
 ----------------------------------------------------------------------------
 SCS-DF-MP2                            -0.858750349203   -264.644301743391
 SCS-DF-MP2-F12/3*C(DX,FIX)            -0.986223197770   -264.771774591958
 SCS-DF-MP2-F12/3*C(FIX)               -0.962921035930   -264.748472430118
 SCS-DF-MP2-F12/3C(FIX)                -0.963368540440   -264.748919934628

 Symmetry restored.
 Symmetry transformation completed.

 Number of N-1 electron functions:              12
 Number of N-2 electron functions:              78
 Number of singly external CSFs:               732
 Number of doubly external CSFs:            836016
 Total number of CSFs:                      836749

 Pair and operator lists are different

 Length of J-op  integral file:             462.26 MB
 Length of K-op  integral file:             502.03 MB
 Length of 3-ext integral record:             0.00 MB

 Memory could be reduced to 38.69 Mwords without degradation in triples

 Integral transformation finished. Total CPU:   1.55 sec, npass=  1  Memory used:   6.07 MW

 Reference energy:                   -263.78555139

 Adding F12 terms to K(Cij), methodcc=6,  factor=1.0

 ITER.      SQ.NORM     CORR.ENERGY   TOTAL ENERGY   ENERGY CHANGE        DEN1      VAR(S)    VAR(P)  DIIS     TIME
   1      1.20214871    -0.86276384  -264.64831523     0.01806396     0.04669491  0.72D-02  0.56D-02  1  1    12.75
   2      1.21646117    -0.85853798  -264.64408937     0.00422586    -0.02015203  0.86D-04  0.59D-03  2  2    13.80
   3      1.22182277    -0.85863450  -264.64418589    -0.00009652    -0.00236452  0.13D-03  0.32D-04  3  3    14.85
   4      1.22462528    -0.85850667  -264.64405806     0.00012783    -0.00141157  0.76D-05  0.41D-05  4  4    15.91
   5      1.22565546    -0.85846899  -264.64402038     0.00003768    -0.00036641  0.56D-06  0.29D-06  5  5    16.96
   6      1.22581765    -0.85844212  -264.64399352     0.00002686    -0.00000805  0.40D-07  0.24D-07  6  6    18.04
   7      1.22584701    -0.85843970  -264.64399110     0.00000242    -0.00000622  0.25D-08  0.40D-08  6  4    19.11
   8      1.22584731    -0.85843921  -264.64399061     0.00000049     0.00000195  0.39D-09  0.27D-09  6  1    20.17
   9      1.22584792    -0.85843928  -264.64399067    -0.00000007     0.00000056  0.25D-10  0.21D-10  6  2    21.23

 Norm of t1 vector:      0.10597159      S-energy:    -0.00000003      T1 diagnostic:  0.01529568
                                                                       D1 diagnostic:  0.04496171

 Adding energy correction from Wij-K(Fij), methodcc=6  factor=1.0
 
  CCSD correlation energy              -0.858439277866
  MP2-F12 correction (uncoupled)       -0.092486082956
  C*T doubles correction               -0.001475461301
  f12b correction                       0.015406632346


 Total CPU time for triples:     29.66 sec


 RESULTS
 =======

  Reference energy                   -263.769628701390
  F12 singles correction               -0.015922692798

 F12 singles corrections added to reference energy

  New reference energy               -263.785551394189

  F12a singlet correction              -0.080424347790
  F12a triplet correction              -0.013537196468
  F12a total correction                -0.093961544258

 F12a corrections for ansatz F12/3C(FIX) added to CCSD energy
 
  CCSD-F12a singlet pair energy        -0.641894569743
  CCSD-F12a triplet pair energy        -0.310506225218
  CCSD-F12a correlation energy         -0.952400822124

  Triples (T) contribution             -0.037640495674
  Total correlation energy             -0.990041317798

  CCSD-F12a total energy             -264.737952216313
  CCSD[T]-F12a energy                -264.778136181372
  CCSD-T-F12a energy                 -264.774655254667
 !CCSD(T)-F12a total energy          -264.775592711987

 F12b corrections for ansatz F12/3C(FIX) added to CCSD(T)-F12a energy

  CCSD-F12b singlet pair energy        -0.627711231956
  CCSD-F12b triplet pair energy        -0.309282930659
  CCSD-F12b correlation energy         -0.936994189778

  Triples (T) contribution             -0.037640495674
  Total correlation energy             -0.974634685452

  CCSD-F12b total energy             -264.722545583967
  CCSD[T]-F12b energy                -264.762729549025
  CCSD-T-F12b energy                 -264.759248622321
 !CCSD(T)-F12b total energy          -264.760186079641

 Timing summary (sec):

 STEP                 CPU(USER)    SYS     CPU(TOT)    WALL
 Transformation          1.56      0.25      1.81      1.81
 CCSD iterations         9.45      0.77     10.22     10.22
 Triples                29.66      0.76     30.42     30.74
 MP2-F12                10.22      1.19     11.41     11.57
 F12b energy             0.64      0.01      0.65      0.64

 Program statistics:

 Available memory in ccsd:                99998934
 Min. memory needed in ccsd:               2244783
 Max. memory used in ccsd:                 3005571
 Max. memory used in cckext:               2769663 (10 integral passes)



 **********************************************************************************************************************************
 DATASETS  * FILE   NREC   LENGTH (MB)   RECORD NAMES
              1      20      137.19       500      610      700      900      950      970     1000      129      960     1100   
                                          VAR    BASINP    GEOM    SYMINP    ZMAT    AOBASIS   BASIS     P2S    ABASIS      S 
                                         1400     1410     1200     1210     1080     1600     1650     1700      960(1)  1380   
                                           T        V       H0       H01     AOSYM     SMH    MOLCAS    OPER    ABASIS    JKOP   

              2       5        0.97       700     1000     2100     7360     7350   
                                         GEOM     BASIS     RHF    F12ABS    EF12   

 PROGRAMS   *        TOTAL   CCSD(T)        HF       INT
 CPU TIMES  *        57.35     51.67      1.25      4.35
 REAL TIME  *        62.01 SEC
 DISK USED  *       902.24 MB      
 SF USED    *         1.34 GB      
 GA USED    *         2.40 MB       (max)       0.00 MB       (current)
 **********************************************************************************************************************************

     CCSD(T)-F12        HF-SCF  
   -264.76018608   -263.76962870
 **********************************************************************************************************************************
 Variable memory released
