
 Primary working directories    : /scratch/kee
 Secondary working directories  : /scratch/kee
 Wavefunction directory         : /home/kee/wfu/
 Main file repository           : /scratch/kee/

 ARCHNAME  : Linux/x86_64
 FC        : /opt/intel/composer_xe_2015.0.090/bin/intel64/ifort
 FCVERSION : 15.0.0
 BLASLIB   : -L/opt/intel/mkl/lib/intel64 -lmkl_intel_ilp64 -lmkl_sequential -lmkl_core
 id        : emory

 Nodes     nprocs
 node24       3
 Number of processes for MPI-2 version of Molpro:   nprocs(total)=    4   nprocs(compute)=    3   nprocs(helper)=    1
 ga_uses_ma=false, calling ma_init with nominal heap.
 GA-space will be limited to   8.0 MW (determined by -G option)

 Using customized tuning parameters: mindgm=7; mindgv=32; mindgc=1; mindgr=1; noblas=0; mincuda=1000; minvec=7
 default implementation of scratch files=sf  

 ***,co2h2o
 memory,100,m
 basis avtz
 geomtype = xyz
 geometry = {
 6
       0.00000000
 O     0.00351000    1.16210700    0.00000000
 O     0.00351000   -1.16210700    0.00000000
 O     6.66968000    0.00000000    0.00000000
 H     7.25589800    0.00000000    0.75853100
 H     7.25589800    0.00000000   -0.75853100
 C     0.01968000    0.00000000    0.00000000
 }
 hf
 ccsd(t)-f12
 ---

 Variables initialized (665), CPU time= 0.01 sec
 Commands  initialized (462), CPU time= 0.01 sec, 486 directives.
 Default parameters read. Elapsed time= 0.03 sec

 Checking input...
 Passed
1


                                         ***  PROGRAM SYSTEM MOLPRO  ***
                         Copyright, University College Cardiff Consultants Limited, 2008

                                    Version 2010.1 linked 9 Dec 2014 15:06:28 


 **********************************************************************************************************************************
 LABEL *   co2h2o                                                                        
 Linux-2.6.32-504.el6.x86_64/node24(x86_64) 64 bit mpp version                           DATE: 12-Dec-16          TIME: 14:13:31  
 **********************************************************************************************************************************

 Patch level:      19
 **********************************************************************************************************************************

 Variable memory set to  100000000 words,  buffer space   230000 words

 SETTING BASIS          =    AVTZ
 SETTING GEOMTYPE       =    XYZ

Geometry recognized as XYZ



 Recomputing integrals since basis changed


 Using spherical harmonics

 Library entry O      S aug-cc-pVTZ          selected for orbital group  1
 Library entry O      P aug-cc-pVTZ          selected for orbital group  1
 Library entry O      D aug-cc-pVTZ          selected for orbital group  1
 Library entry O      F aug-cc-pVTZ          selected for orbital group  1
 Library entry H      S aug-cc-pVTZ          selected for orbital group  2
 Library entry H      P aug-cc-pVTZ          selected for orbital group  2
 Library entry H      D aug-cc-pVTZ          selected for orbital group  2
 Library entry C      S aug-cc-pVTZ          selected for orbital group  3
 Library entry C      P aug-cc-pVTZ          selected for orbital group  3
 Library entry C      D aug-cc-pVTZ          selected for orbital group  3
 Library entry C      F aug-cc-pVTZ          selected for orbital group  3

1PROGRAM * SEWARD (Integral evaluation for generally contracted gaussian basis sets)     Author: Roland Lindh, 1990

 Geometry written to block  1 of record 700


 Point group  C2v 



 ATOMIC COORDINATES

 NR  ATOM    CHARGE       X              Y              Z

   1  O       8.00    0.006632939    2.196063965    0.000000000
   2  O       8.00    0.006632939   -2.196063965    0.000000000
   3  O       8.00   12.603868584    0.000000000    0.000000000
   4  H       1.00   13.711660058    0.000000000    1.433415852
   5  H       1.00   13.711660058    0.000000000   -1.433415852
   6  C       6.00    0.037189810    0.000000000    0.000000000

 Bond lengths in Bohr (Angstrom)

 1-6  2.196276545  2-6  2.196276545  3-4  1.811596797  3-5  1.811596797
     (1.162219492)     (1.162219492)     (0.958655737)     (0.958655737)

 Bond angles

  1-6-2  178.40563223   4-3-5  104.60391356

 NUCLEAR CHARGE:                   32
 NUMBER OF PRIMITIVE AOS:         322
 NUMBER OF SYMMETRY AOS:          282
 NUMBER OF CONTRACTIONS:          230   (  84A1  +  59B1  +  54B2  +  33A2  )
 NUMBER OF CORE ORBITALS:           4   (   3A1  +   1B1  +   0B2  +   0A2  )
 NUMBER OF VALENCE ORBITALS:       18   (   8A1  +   5B1  +   4B2  +   1A2  )


 NUCLEAR REPULSION ENERGY   84.45835725


 Eigenvalues of metric

         1 0.374E-03 0.393E-03 0.899E-03 0.175E-02 0.317E-02 0.320E-02 0.403E-02 0.483E-02
         2 0.349E-03 0.922E-03 0.175E-02 0.346E-02 0.590E-02 0.744E-02 0.202E-01 0.213E-01
         3 0.394E-03 0.166E-02 0.318E-02 0.508E-02 0.622E-02 0.100E-01 0.136E-01 0.156E-01
         4 0.348E-02 0.124E-01 0.296E-01 0.363E-01 0.561E-01 0.679E-01 0.110E+00 0.139E+00


 Contracted 2-electron integrals neglected if value below      1.0D-11
 AO integral compression algorithm  1   Integral accuracy      1.0D-11

     196.084 MB (compressed) written to integral file ( 24.2%)

     Node minimum: 42.992 MB, node maximum: 85.983 MB


 NUMBER OF SORTED TWO-ELECTRON INTEGRALS:   29979201.     BUFFER LENGTH:  32768
 NUMBER OF SEGMENTS:   2  SEGMENT LENGTH:   15996954      RECORD LENGTH: 524288

 Memory used in sort:      16.55 MW

 SORT1 READ   101181464. AND WROTE    12672160. INTEGRALS IN     37 RECORDS. CPU TIME:     1.88 SEC, REAL TIME:     2.06 SEC
 SORT2 READ    38032916. AND WROTE    89930217. INTEGRALS IN    984 RECORDS. CPU TIME:     0.51 SEC, REAL TIME:     0.65 SEC

 Node minimum:    29974277.  Node maximum:    29979201. integrals

 OPERATOR DM      FOR CENTER  0  COORDINATES:    0.000000    0.000000    0.000000


 **********************************************************************************************************************************
 DATASETS  * FILE   NREC   LENGTH (MB)   RECORD NAMES
              1      18        3.23       500      610      700      900      950      970     1000      129      960     1100   
                                          VAR    BASINP    GEOM    SYMINP    ZMAT    AOBASIS   BASIS     P2S    ABASIS      S 
                                         1400     1410     1200     1210     1080     1600     1650     1700   
                                           T        V       H0       H01     AOSYM     SMH    MOLCAS    OPER   

 PROGRAMS   *        TOTAL       INT
 CPU TIMES  *         4.40      4.33
 REAL TIME  *         4.87 SEC
 DISK USED  *       660.45 MB      
 GA USED    *         0.00 MB       (max)       0.00 MB       (current)
 **********************************************************************************************************************************

1PROGRAM * RHF-SCF (CLOSED SHELL)       Authors: W. Meyer, H.-J. Werner


 NUMBER OF ELECTRONS:      16+   16-
 CONVERGENCE THRESHOLDS:    1.00E-05 (Density)    1.00E-07 (Energy)
 MAX. NUMBER OF ITERATIONS:       60
 INTERPOLATION TYPE:            DIIS
 INTERPOLATION STEPS:              2 (START)      1 (STEP)
 LEVEL SHIFTS:                  0.00 (CLOSED)  0.00 (OPEN) 



 Orbital guess generated from atomic densities. Full valence occupancy:   11   6   4   1

 Molecular orbital dump at record        2100.2

 Initial alpha occupancy:   8   5   2   1
 Initial beta  occupancy:   8   5   2   1
 Wave function symmetry:    1

 ITERATION    DDIFF          GRAD             ENERGY        2-EL.EN.            DIPOLE MOMENTS         DIIS
    1      0.000D+00      0.000D+00      -263.66058313    364.587579    1.18063    0.00000    0.00000    0
    2      0.000D+00      0.888D-02      -263.72583120    359.972336    0.69409    0.00000    0.00000    1
    3      0.143D-01      0.603D-02      -263.76905730    362.540020    0.81420    0.00000    0.00000    2
    4      0.587D-02      0.568D-03      -263.76955243    362.328699    0.81764    0.00000    0.00000    3
    5      0.695D-03      0.165D-03      -263.76961048    362.330349    0.81227    0.00000    0.00000    4
    6      0.258D-03      0.667D-04      -263.76961767    362.344932    0.81299    0.00000    0.00000    5
    7      0.856D-04      0.163D-04      -263.76961840    362.336550    0.81254    0.00000    0.00000    6
    8      0.281D-04      0.359D-05      -263.76961845    362.337855    0.81255    0.00000    0.00000    7
    9      0.768D-05      0.121D-05      -263.76961845    362.337659    0.81252    0.00000    0.00000    0

 Final occupancy:   8   5   2   1

 !RHF STATE 1.1 Energy               -263.769618448250
 Nuclear energy                        84.45835725
 One-electron energy                 -529.39680539
 Two-electron energy                  181.16882969
 Virial quotient                       -1.00182844
 !RHF STATE 1.1 Dipole moment           0.81251818     0.00000000     0.00000000
 Dipole moment /Debye                   2.06507995     0.00000000     0.00000000

 Orbital energies:

         1.1          2.1          3.1          4.1          5.1          6.1          7.1          8.1          9.1         10.1
    -20.648774   -20.568440   -11.457640    -1.526432    -1.353850    -0.796744    -0.710444    -0.585634     0.028198     0.052771

         1.2          2.2          3.2          4.2          5.2          6.2          7.2
    -20.648820    -1.473358    -0.738996    -0.540140    -0.511277     0.082347     0.150296

         1.3          2.3          3.3          4.3
     -0.718290    -0.710534     0.046705     0.077877

         1.4          2.4          3.4
     -0.540199     0.167448     0.264497


 **********************************************************************************************************************************
 DATASETS  * FILE   NREC   LENGTH (MB)   RECORD NAMES
              1      18        3.25       500      610      700      900      950      970     1000      129      960     1100   
                                          VAR    BASINP    GEOM    SYMINP    ZMAT    AOBASIS   BASIS     P2S    ABASIS      S 
                                         1400     1410     1200     1210     1080     1600     1650     1700   
                                           T        V       H0       H01     AOSYM     SMH    MOLCAS    OPER   

              2       3        0.67       700     1000     2100   
                                         GEOM     BASIS     RHF  

 PROGRAMS   *        TOTAL        HF       INT
 CPU TIMES  *         6.16      1.76      4.33
 REAL TIME  *         6.71 SEC
 DISK USED  *       677.84 MB      
 SF USED    *         0.06 MB      
 GA USED    *         0.00 MB       (max)       0.00 MB       (current)
 **********************************************************************************************************************************


1PROGRAM * CCSD (Closed-shell coupled cluster)     Authors: C. Hampel, H.-J. Werner, 1991, M. Deegan, P.J. Knowles, 1992

                                  CCSD-F12 implementation by  H.-J. Werner, 2007

                   Density fitting integral evaluation by F.R. Manby, 2003,2007, G. Knizia, 2010

 Basis set CC-PVTZ/JKFIT generated.      Number of basis functions:   376 
 Basis set AUG-CC-PVTZ/MP2FIT generated. Number of basis functions:   516 

 Convergence thresholds:  THRVAR = 1.00D-08  THRDEN = 1.00D-06

 CCSD(T)     terms to be evaluated (factor= 1.000)


 Number of core orbitals:           4 (   3   1   0   0 )
 Number of closed-shell orbitals:  12 (   5   4   2   1 )
 Number of external orbitals:     214 (  76  54  52  32 )

 Molecular orbitals read from record     2100.2  Type=RHF/CANONICAL (state 1.1)

 MP2-F12 correlation treatment (H.-J. Werner, 2006)
 --------------------------------------------------

 Using MP2-F12 with ansatz 3C(FIX)

 Using projected zeroth-order Hamiltonian (+Z)

 FOCKRIB=T FOCKRIC=T FOCKRIP=T CABSP=T CABSA=T CABSK=T CABSF=T GBC=F EBC=F DMAT=T NOFIK=T NOPAO=1 SOLVE=-1  USEPAO=0
 EXCH_A= T EXCH_B= F EXCH_C= F EXCH_P= F
 
 Geminal basis:    OPTFULL  GEM_TYPE=SLATER  BETA=1.0  NGEM=6

 Optimizing Gaussian exponents for each gem_beta

 Geminal optimization for beta= 1.0000
 Weight function:   m=0, omega= 1.4646

 Augmented Hessian optimization of geminal fit. Trust ratio= 0.40000
 Convergence reached after   2 iterations. Final gradient= 8.24D-16, Step= 4.32D-06, Delta= 1.28D-09
 
 Alpha:                 0.19532     0.81920     2.85917     9.50073    35.69989   197.79328
 Coeff:                 0.27070     0.30552     0.18297     0.10986     0.06810     0.04224
 

 Symmetry turned off. Reference energy:       -263.769618448250

 All pairs explicitly correlated. Number of r12-pairs:           78
 
 AO(A)-basis ORBITAL           loaded. Number of functions:     230
 RI(R)-basis CC-PVTZ/JKFIT     loaded. Number of functions:     376
 DF-basis CC-PVTZ/JKFIT        loaded. Number of functions:     376

 Screening thresholds:   THRAO=  1.00D-10  THRMO=  1.00D-09  THRPROD=  1.00D-09
                         THRSW=  1.00D-05  THROV=  1.00D-12  THRF12=   1.00D-08

 CPU time for Fock operators                      1.26 sec
 
 Construction of ABS:
 Smallest eigenvalue of S          2.57E-04  (threshold= 1.00E-08)
 Ratio eigmin/eigmax               1.83E-06  (threshold= 1.00E-09)
 Smallest eigenvalue of S kept     2.57E-04  (threshold= 2.57E-04, 0 functions deleted, 376 kept)
 
 Construction of CABS:
 Smallest eigenvalue of S          2.30E-08  (threshold= 1.00E-08)
 Ratio eigmin/eigmax               2.30E-08  (threshold= 1.00E-09)
 Smallest eigenvalue of S kept     2.30E-08  (threshold= 2.30E-08, 0 functions deleted, 376 kept)
 
 CPU time for CABS singles                        0.18 sec

 CABS-singles contribution of  -0.01592280 patched into reference energy.
 New reference energy        -263.78554125
 
 AO(A)-basis ORBITAL           loaded. Number of functions:     230
 RI(R)-basis CC-PVTZ/JKFIT     loaded. Number of functions:     376
 DF-basis AUG-CC-PVTZ/MP2FIT   loaded. Number of functions:     516

 Screening thresholds:   THRAO=  1.00D-10  THRMO=  1.00D-09  THRPROD=  1.00D-09
                         THRSW=  1.00D-05  THROV=  1.00D-12  THRF12=   1.00D-08

 CPU time for 3-index integral evaluation         2.71 sec
 CPU time for first  half transformation          0.29 sec ( 9113.4 MFLOP/sec)
 CPU time for second half transformation          0.04 sec ( 2538.3 MFLOP/sec)
 CPU time for sorting                             0.14 sec
 CPU time for fitting                             0.09 sec (15478.3 MFLOP/sec)
 CPU time for tilde quantities                    0.17 sec (10155.3 MFLOP/sec)
 CPU time for assembly                            0.95 sec (23937.7 MFLOP/sec)
 CPU time for tranop_f12                          1.63 sec (17429.1 MFLOP/sec)
 CPU time for f12 integrals (total)               9.23 sec
 F12-matrices built in  3 passes.
 F12-matrices built in  3 passes.
 F12-matrices built in  3 passes.
 F12-matrices built in  3 passes.
 FC-matrix built in  3 passes.
 CPU time for f12 matrices (total)                0.61 sec

 Diagonal F12 approximation with fixed coefficients:  TSING= 0.500,  TTRIP= 0.250 (scaled by -1/beta)

 DF-MP2-F12 energy corrections:
 ------------------------------
 Approx.                                    Singlet             Triplet             Total
 DF-MP2-F12/3*C(DX,FIX)                -0.097447408299     -0.016933158116     -0.114380566415
 DF-MP2-F12/3*C(FIX)                   -0.079863359964     -0.013395280034     -0.093258639998
 DF-MP2-F12/3C(FIX)                    -0.080224190201     -0.013418597225     -0.093642787426

 DF-MP2-F12 correlation energies:
 --------------------------------
 Approx.                                    Singlet             Triplet             Ecorr            Total Energy
 DF-MP2                                -0.537733417691     -0.343078833044     -0.880812250735   -264.666353503553
 DF-MP2-F12/3*C(DX,FIX)                -0.635180825990     -0.360011991160     -0.995192817150   -264.780734069969
 DF-MP2-F12/3*C(FIX)                   -0.617596777655     -0.356474113078     -0.974070890733   -264.759612143552
 DF-MP2-F12/3C(FIX)                    -0.617957607892     -0.356497430269     -0.974455038161   -264.759996290979

 SCS-DF-MP2 energies (F_SING= 1.20000  F_TRIP= 0.62222  F_PARALLEL= 0.33333):
 ----------------------------------------------------------------------------
 SCS-DF-MP2                            -0.858751375123   -264.644292627942
 SCS-DF-MP2-F12/3*C(DX,FIX)            -0.986224452354   -264.771765705173
 SCS-DF-MP2-F12/3*C(FIX)               -0.962922247990   -264.748463500809
 SCS-DF-MP2-F12/3C(FIX)                -0.963369752749   -264.748911005568

 Symmetry restored.
 Symmetry transformation completed.

 Number of N-1 electron functions:              12
 Number of N-2 electron functions:              78
 Number of singly external CSFs:               732
 Number of doubly external CSFs:            836016
 Total number of CSFs:                      836749

 Pair and operator lists are different

 Length of J-op  integral file:             462.26 MB
 Length of K-op  integral file:             502.03 MB
 Length of 3-ext integral record:             0.00 MB

 Memory could be reduced to 38.69 Mwords without degradation in triples

 Integral transformation finished. Total CPU:   1.89 sec, npass=  1  Memory used:   6.07 MW

 Reference energy:                   -263.78554125

 Adding F12 terms to K(Cij), methodcc=6,  factor=1.0

 ITER.      SQ.NORM     CORR.ENERGY   TOTAL ENERGY   ENERGY CHANGE        DEN1      VAR(S)    VAR(P)  DIIS     TIME
   1      1.20214946    -0.86276444  -264.64830570     0.01806423     0.04669564  0.72D-02  0.56D-02  1  1    14.74
   2      1.21646207    -0.85853841  -264.64407966     0.00422603    -0.02015229  0.86D-04  0.59D-03  2  2    15.85
   3      1.22182366    -0.85863490  -264.64417615    -0.00009649    -0.00236451  0.13D-03  0.32D-04  3  3    16.99
   4      1.22462616    -0.85850707  -264.64404832     0.00012783    -0.00141157  0.76D-05  0.41D-05  4  4    18.12
   5      1.22565634    -0.85846938  -264.64401064     0.00003768    -0.00036641  0.56D-06  0.29D-06  5  5    19.24
   6      1.22581853    -0.85844252  -264.64398377     0.00002686    -0.00000805  0.40D-07  0.24D-07  6  6    20.37
   7      1.22584789    -0.85844010  -264.64398135     0.00000242    -0.00000622  0.25D-08  0.40D-08  6  4    21.48
   8      1.22584819    -0.85843961  -264.64398086     0.00000049     0.00000195  0.39D-09  0.27D-09  6  1    22.61
   9      1.22584880    -0.85843967  -264.64398093    -0.00000007     0.00000056  0.25D-10  0.21D-10  6  2    23.77

 Norm of t1 vector:      0.10597155      S-energy:    -0.00000003      T1 diagnostic:  0.01529568
                                                                       D1 diagnostic:  0.04496069

 Adding energy correction from Wij-K(Fij), methodcc=6  factor=1.0
 
  CCSD correlation energy              -0.858439673154
  MP2-F12 correction (uncoupled)       -0.092486200562
  C*T doubles correction               -0.001475494654
  f12b correction                       0.015406646691


 Total CPU time for triples:     32.64 sec


 RESULTS
 =======

  Reference energy                   -263.769618448250
  F12 singles correction               -0.015922804568

 F12 singles corrections added to reference energy

  New reference energy               -263.785541252819

  F12a singlet correction              -0.080424470004
  F12a triplet correction              -0.013537225213
  F12a total correction                -0.093961695216

 F12a corrections for ansatz F12/3C(FIX) added to CCSD energy
 
  CCSD-F12a singlet pair energy        -0.641895559531
  CCSD-F12a triplet pair energy        -0.310505781701
  CCSD-F12a correlation energy         -0.952401368370

  Triples (T) contribution             -0.037640553684
  Total correlation energy             -0.990041922054

  CCSD-F12a total energy             -264.737942621189
  CCSD[T]-F12a energy                -264.778126695435
  CCSD-T-F12a energy                 -264.774645690331
 !CCSD(T)-F12a total energy          -264.775583174873

 F12b corrections for ansatz F12/3C(FIX) added to CCSD(T)-F12a energy

  CCSD-F12b singlet pair energy        -0.627712206193
  CCSD-F12b triplet pair energy        -0.309282488348
  CCSD-F12b correlation energy         -0.936994721679

  Triples (T) contribution             -0.037640553684
  Total correlation energy             -0.974635275363

  CCSD-F12b total energy             -264.722535974498
  CCSD[T]-F12b energy                -264.762720048744
  CCSD-T-F12b energy                 -264.759239043640
 !CCSD(T)-F12b total energy          -264.760176528182

 Timing summary (sec):

 STEP                 CPU(USER)    SYS     CPU(TOT)    WALL
 Transformation          1.91      0.24      2.15      2.14
 CCSD iterations        10.07      0.74     10.81     11.73
 Triples                32.64      0.85     33.49     33.50
 MP2-F12                11.79      1.57     13.36     13.44
 F12b energy             0.68      0.02      0.70      0.69

 Program statistics:

 Available memory in ccsd:                99998934
 Min. memory needed in ccsd:               2244783
 Max. memory used in ccsd:                 3005571
 Max. memory used in cckext:               2769663 (10 integral passes)



 **********************************************************************************************************************************
 DATASETS  * FILE   NREC   LENGTH (MB)   RECORD NAMES
              1      20      137.19       500      610      700      900      950      970     1000      129      960     1100   
                                          VAR    BASINP    GEOM    SYMINP    ZMAT    AOBASIS   BASIS     P2S    ABASIS      S 
                                         1400     1410     1200     1210     1080     1600     1650     1700      960(1)  1380   
                                           T        V       H0       H01     AOSYM     SMH    MOLCAS    OPER    ABASIS    JKOP   

              2       5        0.97       700     1000     2100     7360     7350   
                                         GEOM     BASIS     RHF    F12ABS    EF12   

 PROGRAMS   *        TOTAL   CCSD(T)        HF       INT
 CPU TIMES  *        63.41     57.25      1.76      4.33
 REAL TIME  *        68.48 SEC
 DISK USED  *       899.51 MB      
 SF USED    *         1.33 GB      
 GA USED    *         2.40 MB       (max)       0.00 MB       (current)
 **********************************************************************************************************************************

     CCSD(T)-F12        HF-SCF  
   -264.76017653   -263.76961845
 **********************************************************************************************************************************
 Variable memory released
