
 Primary working directories    : /scratch/kee
 Secondary working directories  : /scratch/kee
 Wavefunction directory         : /home/kee/wfu/
 Main file repository           : /scratch/kee/

 ARCHNAME  : Linux/x86_64
 FC        : /opt/intel/composer_xe_2015.0.090/bin/intel64/ifort
 FCVERSION : 15.0.0
 BLASLIB   : -L/opt/intel/mkl/lib/intel64 -lmkl_intel_ilp64 -lmkl_sequential -lmkl_core
 id        : emory

 Nodes     nprocs
 node24       3
 Number of processes for MPI-2 version of Molpro:   nprocs(total)=    4   nprocs(compute)=    3   nprocs(helper)=    1
 ga_uses_ma=false, calling ma_init with nominal heap.
 GA-space will be limited to   8.0 MW (determined by -G option)

 Using customized tuning parameters: mindgm=7; mindgv=32; mindgc=1; mindgr=1; noblas=0; mincuda=1000; minvec=7
 default implementation of scratch files=sf  

 ***,co2h2o
 memory,100,m
 basis avtz
 geomtype = xyz
 geometry = {
 6
       0.00000000
 O     0.00351000    1.16210700    0.00000000
 O     0.00351000   -1.16210700    0.00000000
 O     6.91968000    0.00000000    0.00000000
 H     7.50589800    0.00000000    0.75853100
 H     7.50589800    0.00000000   -0.75853100
 C     0.01968000    0.00000000    0.00000000
 }
 hf
 ccsd(t)-f12
 ---

 Variables initialized (665), CPU time= 0.00 sec
 Commands  initialized (462), CPU time= 0.01 sec, 486 directives.
 Default parameters read. Elapsed time= 0.04 sec

 Checking input...
 Passed
1


                                         ***  PROGRAM SYSTEM MOLPRO  ***
                         Copyright, University College Cardiff Consultants Limited, 2008

                                    Version 2010.1 linked 9 Dec 2014 15:06:28 


 **********************************************************************************************************************************
 LABEL *   co2h2o                                                                        
 Linux-2.6.32-504.el6.x86_64/node24(x86_64) 64 bit mpp version                           DATE: 12-Dec-16          TIME: 14:18:59  
 **********************************************************************************************************************************

 Patch level:      19
 **********************************************************************************************************************************

 Variable memory set to  100000000 words,  buffer space   230000 words

 SETTING BASIS          =    AVTZ
 SETTING GEOMTYPE       =    XYZ

Geometry recognized as XYZ



 Recomputing integrals since basis changed


 Using spherical harmonics

 Library entry O      S aug-cc-pVTZ          selected for orbital group  1
 Library entry O      P aug-cc-pVTZ          selected for orbital group  1
 Library entry O      D aug-cc-pVTZ          selected for orbital group  1
 Library entry O      F aug-cc-pVTZ          selected for orbital group  1
 Library entry H      S aug-cc-pVTZ          selected for orbital group  2
 Library entry H      P aug-cc-pVTZ          selected for orbital group  2
 Library entry H      D aug-cc-pVTZ          selected for orbital group  2
 Library entry C      S aug-cc-pVTZ          selected for orbital group  3
 Library entry C      P aug-cc-pVTZ          selected for orbital group  3
 Library entry C      D aug-cc-pVTZ          selected for orbital group  3
 Library entry C      F aug-cc-pVTZ          selected for orbital group  3

1PROGRAM * SEWARD (Integral evaluation for generally contracted gaussian basis sets)     Author: Roland Lindh, 1990

 Geometry written to block  1 of record 700


 Point group  C2v 



 ATOMIC COORDINATES

 NR  ATOM    CHARGE       X              Y              Z

   1  O       8.00    0.006632939    2.196063965    0.000000000
   2  O       8.00    0.006632939   -2.196063965    0.000000000
   3  O       8.00   13.076300117    0.000000000    0.000000000
   4  H       1.00   14.184091590    0.000000000    1.433415852
   5  H       1.00   14.184091590    0.000000000   -1.433415852
   6  C       6.00    0.037189810    0.000000000    0.000000000

 Bond lengths in Bohr (Angstrom)

 1-6  2.196276545  2-6  2.196276545  3-4  1.811596797  3-5  1.811596797
     (1.162219492)     (1.162219492)     (0.958655737)     (0.958655737)

 Bond angles

  1-6-2  178.40563223   4-3-5  104.60391356

 NUCLEAR CHARGE:                   32
 NUMBER OF PRIMITIVE AOS:         322
 NUMBER OF SYMMETRY AOS:          282
 NUMBER OF CONTRACTIONS:          230   (  84A1  +  59B1  +  54B2  +  33A2  )
 NUMBER OF CORE ORBITALS:           4   (   3A1  +   1B1  +   0B2  +   0A2  )
 NUMBER OF VALENCE ORBITALS:       18   (   8A1  +   5B1  +   4B2  +   1A2  )


 NUCLEAR REPULSION ENERGY   83.86555504


 Eigenvalues of metric

         1 0.374E-03 0.397E-03 0.900E-03 0.176E-02 0.317E-02 0.321E-02 0.404E-02 0.493E-02
         2 0.349E-03 0.922E-03 0.175E-02 0.347E-02 0.592E-02 0.744E-02 0.203E-01 0.214E-01
         3 0.394E-03 0.166E-02 0.318E-02 0.508E-02 0.622E-02 0.100E-01 0.136E-01 0.156E-01
         4 0.348E-02 0.124E-01 0.296E-01 0.363E-01 0.561E-01 0.679E-01 0.110E+00 0.139E+00


 Contracted 2-electron integrals neglected if value below      1.0D-11
 AO integral compression algorithm  1   Integral accuracy      1.0D-11

     190.317 MB (compressed) written to integral file ( 23.8%)

     Node minimum: 59.507 MB, node maximum: 68.944 MB


 NUMBER OF SORTED TWO-ELECTRON INTEGRALS:   29979201.     BUFFER LENGTH:  32768
 NUMBER OF SEGMENTS:   2  SEGMENT LENGTH:   15996954      RECORD LENGTH: 524288

 Memory used in sort:      16.55 MW

 SORT1 READ    99670316. AND WROTE    12141766. INTEGRALS IN     36 RECORDS. CPU TIME:     1.85 SEC, REAL TIME:     2.02 SEC
 SORT2 READ    36443964. AND WROTE    89930217. INTEGRALS IN    681 RECORDS. CPU TIME:     0.58 SEC, REAL TIME:     0.72 SEC

 Node minimum:    29974277.  Node maximum:    29979201. integrals

 OPERATOR DM      FOR CENTER  0  COORDINATES:    0.000000    0.000000    0.000000


 **********************************************************************************************************************************
 DATASETS  * FILE   NREC   LENGTH (MB)   RECORD NAMES
              1      18        3.23       500      610      700      900      950      970     1000      129      960     1100   
                                          VAR    BASINP    GEOM    SYMINP    ZMAT    AOBASIS   BASIS     P2S    ABASIS      S 
                                         1400     1410     1200     1210     1080     1600     1650     1700   
                                           T        V       H0       H01     AOSYM     SMH    MOLCAS    OPER   

 PROGRAMS   *        TOTAL       INT
 CPU TIMES  *         4.18      4.12
 REAL TIME  *         4.96 SEC
 DISK USED  *       618.54 MB      
 GA USED    *         0.00 MB       (max)       0.00 MB       (current)
 **********************************************************************************************************************************

1PROGRAM * RHF-SCF (CLOSED SHELL)       Authors: W. Meyer, H.-J. Werner


 NUMBER OF ELECTRONS:      16+   16-
 CONVERGENCE THRESHOLDS:    1.00E-05 (Density)    1.00E-07 (Energy)
 MAX. NUMBER OF ITERATIONS:       60
 INTERPOLATION TYPE:            DIIS
 INTERPOLATION STEPS:              2 (START)      1 (STEP)
 LEVEL SHIFTS:                  0.00 (CLOSED)  0.00 (OPEN) 



 Orbital guess generated from atomic densities. Full valence occupancy:   11   6   4   1

 Molecular orbital dump at record        2100.2

 Initial alpha occupancy:   8   5   2   1
 Initial beta  occupancy:   8   5   2   1
 Wave function symmetry:    1

 ITERATION    DDIFF          GRAD             ENERGY        2-EL.EN.            DIPOLE MOMENTS         DIIS
    1      0.000D+00      0.000D+00      -263.66052728    363.385408    1.18062    0.00000    0.00000    0
    2      0.000D+00      0.888D-02      -263.72578511    358.775558    0.69246    0.00000    0.00000    1
    3      0.143D-01      0.603D-02      -263.76903464    361.342696    0.81309    0.00000    0.00000    2
    4      0.587D-02      0.568D-03      -263.76952977    361.131151    0.81654    0.00000    0.00000    3
    5      0.695D-03      0.165D-03      -263.76958783    361.132949    0.81116    0.00000    0.00000    4
    6      0.258D-03      0.667D-04      -263.76959501    361.147499    0.81187    0.00000    0.00000    5
    7      0.856D-04      0.163D-04      -263.76959574    361.139125    0.81142    0.00000    0.00000    6
    8      0.281D-04      0.359D-05      -263.76959579    361.140429    0.81143    0.00000    0.00000    7
    9      0.768D-05      0.121D-05      -263.76959579    361.140234    0.81140    0.00000    0.00000    0

 Final occupancy:   8   5   2   1

 !RHF STATE 1.1 Energy               -263.769595789325
 Nuclear energy                        83.86555504
 One-electron energy                 -528.20526804
 Two-electron energy                  180.57011721
 Virial quotient                       -1.00182816
 !RHF STATE 1.1 Dipole moment           0.81140343     0.00000000     0.00000000
 Dipole moment /Debye                   2.06224673     0.00000000     0.00000000

 Orbital energies:

         1.1          2.1          3.1          4.1          5.1          6.1          7.1          8.1          9.1         10.1
    -20.649093   -20.568337   -11.457953    -1.526751    -1.353746    -0.797055    -0.710771    -0.585517     0.028226     0.052248

         1.2          2.2          3.2          4.2          5.2          6.2          7.2
    -20.649139    -1.473676    -0.739305    -0.540458    -0.511170     0.082160     0.151635

         1.3          2.3          3.3          4.3
     -0.718186    -0.710849     0.046786     0.077443

         1.4          2.4          3.4
     -0.540511     0.167252     0.264556


 **********************************************************************************************************************************
 DATASETS  * FILE   NREC   LENGTH (MB)   RECORD NAMES
              1      18        3.25       500      610      700      900      950      970     1000      129      960     1100   
                                          VAR    BASINP    GEOM    SYMINP    ZMAT    AOBASIS   BASIS     P2S    ABASIS      S 
                                         1400     1410     1200     1210     1080     1600     1650     1700   
                                           T        V       H0       H01     AOSYM     SMH    MOLCAS    OPER   

              2       3        0.67       700     1000     2100   
                                         GEOM     BASIS     RHF  

 PROGRAMS   *        TOTAL        HF       INT
 CPU TIMES  *         5.50      1.32      4.12
 REAL TIME  *         6.37 SEC
 DISK USED  *       635.94 MB      
 SF USED    *         0.06 MB      
 GA USED    *         0.00 MB       (max)       0.00 MB       (current)
 **********************************************************************************************************************************


1PROGRAM * CCSD (Closed-shell coupled cluster)     Authors: C. Hampel, H.-J. Werner, 1991, M. Deegan, P.J. Knowles, 1992

                                  CCSD-F12 implementation by  H.-J. Werner, 2007

                   Density fitting integral evaluation by F.R. Manby, 2003,2007, G. Knizia, 2010

 Basis set CC-PVTZ/JKFIT generated.      Number of basis functions:   376 
 Basis set AUG-CC-PVTZ/MP2FIT generated. Number of basis functions:   516 

 Convergence thresholds:  THRVAR = 1.00D-08  THRDEN = 1.00D-06

 CCSD(T)     terms to be evaluated (factor= 1.000)


 Number of core orbitals:           4 (   3   1   0   0 )
 Number of closed-shell orbitals:  12 (   5   4   2   1 )
 Number of external orbitals:     214 (  76  54  52  32 )

 Molecular orbitals read from record     2100.2  Type=RHF/CANONICAL (state 1.1)

 MP2-F12 correlation treatment (H.-J. Werner, 2006)
 --------------------------------------------------

 Using MP2-F12 with ansatz 3C(FIX)

 Using projected zeroth-order Hamiltonian (+Z)

 FOCKRIB=T FOCKRIC=T FOCKRIP=T CABSP=T CABSA=T CABSK=T CABSF=T GBC=F EBC=F DMAT=T NOFIK=T NOPAO=1 SOLVE=-1  USEPAO=0
 EXCH_A= T EXCH_B= F EXCH_C= F EXCH_P= F
 
 Geminal basis:    OPTFULL  GEM_TYPE=SLATER  BETA=1.0  NGEM=6

 Optimizing Gaussian exponents for each gem_beta

 Geminal optimization for beta= 1.0000
 Weight function:   m=0, omega= 1.4646

 Augmented Hessian optimization of geminal fit. Trust ratio= 0.40000
 Convergence reached after   2 iterations. Final gradient= 8.24D-16, Step= 4.32D-06, Delta= 1.28D-09
 
 Alpha:                 0.19532     0.81920     2.85917     9.50073    35.69989   197.79328
 Coeff:                 0.27070     0.30552     0.18297     0.10986     0.06810     0.04224
 

 Symmetry turned off. Reference energy:       -263.769595789325

 All pairs explicitly correlated. Number of r12-pairs:           78
 
 AO(A)-basis ORBITAL           loaded. Number of functions:     230
 RI(R)-basis CC-PVTZ/JKFIT     loaded. Number of functions:     376
 DF-basis CC-PVTZ/JKFIT        loaded. Number of functions:     376

 Screening thresholds:   THRAO=  1.00D-10  THRMO=  1.00D-09  THRPROD=  1.00D-09
                         THRSW=  1.00D-05  THROV=  1.00D-12  THRF12=   1.00D-08

 CPU time for Fock operators                      1.10 sec
 
 Construction of ABS:
 Smallest eigenvalue of S          2.57E-04  (threshold= 1.00E-08)
 Ratio eigmin/eigmax               1.83E-06  (threshold= 1.00E-09)
 Smallest eigenvalue of S kept     2.57E-04  (threshold= 2.57E-04, 0 functions deleted, 376 kept)
 
 Construction of CABS:
 Smallest eigenvalue of S          2.30E-08  (threshold= 1.00E-08)
 Ratio eigmin/eigmax               2.30E-08  (threshold= 1.00E-09)
 Smallest eigenvalue of S kept     2.30E-08  (threshold= 2.30E-08, 0 functions deleted, 376 kept)
 
 CPU time for CABS singles                        0.18 sec

 CABS-singles contribution of  -0.01592307 patched into reference energy.
 New reference energy        -263.78551886
 
 AO(A)-basis ORBITAL           loaded. Number of functions:     230
 RI(R)-basis CC-PVTZ/JKFIT     loaded. Number of functions:     376
 DF-basis AUG-CC-PVTZ/MP2FIT   loaded. Number of functions:     516

 Screening thresholds:   THRAO=  1.00D-10  THRMO=  1.00D-09  THRPROD=  1.00D-09
                         THRSW=  1.00D-05  THROV=  1.00D-12  THRF12=   1.00D-08

 CPU time for 3-index integral evaluation         2.18 sec
 CPU time for first  half transformation          0.21 sec (11268.9 MFLOP/sec)
 CPU time for second half transformation          0.02 sec ( 4919.6 MFLOP/sec)
 CPU time for sorting                             0.17 sec
 CPU time for fitting                             0.06 sec (23217.5 MFLOP/sec)
 CPU time for tilde quantities                    0.05 sec (36977.6 MFLOP/sec)
 CPU time for assembly                            0.91 sec (25763.4 MFLOP/sec)
 CPU time for tranop_f12                          1.00 sec (30167.8 MFLOP/sec)
 CPU time for f12 integrals (total)               6.96 sec
 F12-matrices built in  3 passes.
 F12-matrices built in  3 passes.
 F12-matrices built in  3 passes.
 F12-matrices built in  3 passes.
 FC-matrix built in  3 passes.
 CPU time for f12 matrices (total)                0.58 sec

 Diagonal F12 approximation with fixed coefficients:  TSING= 0.500,  TTRIP= 0.250 (scaled by -1/beta)

 DF-MP2-F12 energy corrections:
 ------------------------------
 Approx.                                    Singlet             Triplet             Total
 DF-MP2-F12/3*C(DX,FIX)                -0.097447835143     -0.016933238420     -0.114381073563
 DF-MP2-F12/3*C(FIX)                   -0.079863686006     -0.013395366374     -0.093259052379
 DF-MP2-F12/3C(FIX)                    -0.080224541160     -0.013418687788     -0.093643228948

 DF-MP2-F12 correlation energies:
 --------------------------------
 Approx.                                    Singlet             Triplet             Ecorr            Total Energy
 DF-MP2                                -0.537735265260     -0.343079043375     -0.880814308634   -264.666333168385
 DF-MP2-F12/3*C(DX,FIX)                -0.635183100403     -0.360012281794     -0.995195382197   -264.780714241947
 DF-MP2-F12/3*C(FIX)                   -0.617598951265     -0.356474409748     -0.974073361014   -264.759592220764
 DF-MP2-F12/3C(FIX)                    -0.617959806419     -0.356497731163     -0.974457537582   -264.759976397333

 SCS-DF-MP2 energies (F_SING= 1.20000  F_TRIP= 0.62222  F_PARALLEL= 0.33333):
 ----------------------------------------------------------------------------
 SCS-DF-MP2                            -0.858753723078   -264.644272582828
 SCS-DF-MP2-F12/3*C(DX,FIX)            -0.986227362488   -264.771746222239
 SCS-DF-MP2-F12/3*C(FIX)               -0.962925040917   -264.748443900668
 SCS-DF-MP2-F12/3C(FIX)                -0.963372578205   -264.748891437955

 Symmetry restored.
 Symmetry transformation completed.

 Number of N-1 electron functions:              12
 Number of N-2 electron functions:              78
 Number of singly external CSFs:               732
 Number of doubly external CSFs:            836016
 Total number of CSFs:                      836749

 Pair and operator lists are different

 Length of J-op  integral file:             462.26 MB
 Length of K-op  integral file:             502.03 MB
 Length of 3-ext integral record:             0.00 MB

 Memory could be reduced to 38.69 Mwords without degradation in triples

 Integral transformation finished. Total CPU:   1.56 sec, npass=  1  Memory used:   6.07 MW

 Reference energy:                   -263.78551886

 Adding F12 terms to K(Cij), methodcc=6,  factor=1.0

 ITER.      SQ.NORM     CORR.ENERGY   TOTAL ENERGY   ENERGY CHANGE        DEN1      VAR(S)    VAR(P)  DIIS     TIME
   1      1.20215118    -0.86276590  -264.64828476     0.01806484     0.04669727  0.72D-02  0.56D-02  1  1    11.82
   2      1.21646414    -0.85853949  -264.64405835     0.00422641    -0.02015286  0.86D-04  0.59D-03  2  2    12.87
   3      1.22182571    -0.85863592  -264.64415478    -0.00009643    -0.00236449  0.13D-03  0.32D-04  3  3    13.92
   4      1.22462819    -0.85850807  -264.64402693     0.00012785    -0.00141157  0.76D-05  0.41D-05  4  4    14.98
   5      1.22565837    -0.85847038  -264.64398924     0.00003769    -0.00036642  0.56D-06  0.29D-06  5  5    16.06
   6      1.22582056    -0.85844352  -264.64396238     0.00002686    -0.00000805  0.40D-07  0.24D-07  6  6    17.15
   7      1.22584992    -0.85844110  -264.64395996     0.00000242    -0.00000622  0.25D-08  0.40D-08  6  4    18.20
   8      1.22585022    -0.85844061  -264.64395947     0.00000049     0.00000195  0.39D-09  0.27D-09  6  1    19.21
   9      1.22585083    -0.85844067  -264.64395953    -0.00000007     0.00000056  0.25D-10  0.21D-10  6  2    20.26

 Norm of t1 vector:      0.10597157      S-energy:    -0.00000003      T1 diagnostic:  0.01529568
                                                                       D1 diagnostic:  0.04495848

 Adding energy correction from Wij-K(Fij), methodcc=6  factor=1.0
 
  CCSD correlation energy              -0.858440672979
  MP2-F12 correction (uncoupled)       -0.092486488602
  C*T doubles correction               -0.001475577029
  f12b correction                       0.015406680141


 Total CPU time for triples:     29.41 sec


 RESULTS
 =======

  Reference energy                   -263.769595789325
  F12 singles correction               -0.015923070425

 F12 singles corrections added to reference energy

  New reference energy               -263.785518859751

  F12a singlet correction              -0.080424764738
  F12a triplet correction              -0.013537300893
  F12a total correction                -0.093962065631

 F12a corrections for ansatz F12/3C(FIX) added to CCSD energy
 
  CCSD-F12a singlet pair energy        -0.641897763966
  CCSD-F12a triplet pair energy        -0.310504947561
  CCSD-F12a correlation energy         -0.952402738610

  Triples (T) contribution             -0.037640712468
  Total correlation energy             -0.990043451078

  CCSD-F12a total energy             -264.737921598361
  CCSD[T]-F12a energy                -264.778105947021
  CCSD-T-F12a energy                 -264.774624766068
 !CCSD(T)-F12a total energy          -264.775562310829

 F12b corrections for ansatz F12/3C(FIX) added to CCSD(T)-F12a energy

  CCSD-F12b singlet pair energy        -0.627714374600
  CCSD-F12b triplet pair energy        -0.309281656787
  CCSD-F12b correlation energy         -0.936996058469

  Triples (T) contribution             -0.037640712468
  Total correlation energy             -0.974636770938

  CCSD-F12b total energy             -264.722514918220
  CCSD[T]-F12b energy                -264.762699266880
  CCSD-T-F12b energy                 -264.759218085927
 !CCSD(T)-F12b total energy          -264.760155630688

 Timing summary (sec):

 STEP                 CPU(USER)    SYS     CPU(TOT)    WALL
 Transformation          1.57      0.25      1.82      1.82
 CCSD iterations         9.43      0.72     10.15     10.15
 Triples                29.41      0.81     30.22     30.47
 MP2-F12                 9.28      1.33     10.61     10.61
 F12b energy             0.62      0.01      0.63      0.63

 Program statistics:

 Available memory in ccsd:                99998934
 Min. memory needed in ccsd:               2244783
 Max. memory used in ccsd:                 3005571
 Max. memory used in cckext:               2769663 (10 integral passes)



 **********************************************************************************************************************************
 DATASETS  * FILE   NREC   LENGTH (MB)   RECORD NAMES
              1      20      137.19       500      610      700      900      950      970     1000      129      960     1100   
                                          VAR    BASINP    GEOM    SYMINP    ZMAT    AOBASIS   BASIS     P2S    ABASIS      S 
                                         1400     1410     1200     1210     1080     1600     1650     1700      960(1)  1380   
                                           T        V       H0       H01     AOSYM     SMH    MOLCAS    OPER    ABASIS    JKOP   

              2       5        0.97       700     1000     2100     7360     7350   
                                         GEOM     BASIS     RHF    F12ABS    EF12   

 PROGRAMS   *        TOTAL   CCSD(T)        HF       INT
 CPU TIMES  *        55.96     50.46      1.32      4.12
 REAL TIME  *        60.34 SEC
 DISK USED  *       857.60 MB      
 SF USED    *         1.33 GB      
 GA USED    *         2.40 MB       (max)       0.00 MB       (current)
 **********************************************************************************************************************************

     CCSD(T)-F12        HF-SCF  
   -264.76015563   -263.76959579
 **********************************************************************************************************************************
 Variable memory released
