
 Primary working directories    : /scratch/kee
 Secondary working directories  : /scratch/kee
 Wavefunction directory         : /home/kee/wfu/
 Main file repository           : /scratch/kee/

 ARCHNAME  : Linux/x86_64
 FC        : /opt/intel/composer_xe_2015.0.090/bin/intel64/ifort
 FCVERSION : 15.0.0
 BLASLIB   : -L/opt/intel/mkl/lib/intel64 -lmkl_intel_ilp64 -lmkl_sequential -lmkl_core
 id        : emory

 Nodes     nprocs
 node19       3
 Number of processes for MPI-2 version of Molpro:   nprocs(total)=    4   nprocs(compute)=    3   nprocs(helper)=    1
 ga_uses_ma=false, calling ma_init with nominal heap.
 GA-space will be limited to   8.0 MW (determined by -G option)

 Using customized tuning parameters: mindgm=7; mindgv=32; mindgc=1; mindgr=1; noblas=0; mincuda=1000; minvec=7
 default implementation of scratch files=sf  

 ***,co2h2o
 memory,100,m
 basis avtz
 geomtype = xyz
 geometry = {
 6
       0.00000000
 O     0.01288800    1.16233300    0.00000000
 O     0.01288800   -1.16233300    0.00000000
 O     5.75363900    0.00000000    0.00000000
 H     5.17249900    0.76306800    0.00000000
 H     5.17249900   -0.76306800    0.00000000
 C     0.00363900    0.00000000    0.00000000
 }
 hf
 ccsd(t)-f12
 ---

 Variables initialized (665), CPU time= 0.01 sec
 Commands  initialized (462), CPU time= 0.01 sec, 486 directives.
 Default parameters read. Elapsed time= 0.05 sec

 Checking input...
 Passed
1


                                         ***  PROGRAM SYSTEM MOLPRO  ***
                         Copyright, University College Cardiff Consultants Limited, 2008

                                    Version 2010.1 linked 9 Dec 2014 15:06:28 


 **********************************************************************************************************************************
 LABEL *   co2h2o                                                                        
 Linux-2.6.32-504.el6.x86_64/node19(x86_64) 64 bit mpp version                           DATE: 15-Dec-16          TIME: 00:13:42  
 **********************************************************************************************************************************

 Patch level:      19
 **********************************************************************************************************************************

 Variable memory set to  100000000 words,  buffer space   230000 words

 SETTING BASIS          =    AVTZ
 SETTING GEOMTYPE       =    XYZ

Geometry recognized as XYZ



 Recomputing integrals since basis changed


 Using spherical harmonics

 Library entry O      S aug-cc-pVTZ          selected for orbital group  1
 Library entry O      P aug-cc-pVTZ          selected for orbital group  1
 Library entry O      D aug-cc-pVTZ          selected for orbital group  1
 Library entry O      F aug-cc-pVTZ          selected for orbital group  1
 Library entry H      S aug-cc-pVTZ          selected for orbital group  2
 Library entry H      P aug-cc-pVTZ          selected for orbital group  2
 Library entry H      D aug-cc-pVTZ          selected for orbital group  2
 Library entry C      S aug-cc-pVTZ          selected for orbital group  3
 Library entry C      P aug-cc-pVTZ          selected for orbital group  3
 Library entry C      D aug-cc-pVTZ          selected for orbital group  3
 Library entry C      F aug-cc-pVTZ          selected for orbital group  3

1PROGRAM * SEWARD (Integral evaluation for generally contracted gaussian basis sets)     Author: Roland Lindh, 1990

 Geometry written to block  1 of record 700


 Point group  C2v 



 ATOMIC COORDINATES

 NR  ATOM    CHARGE       X              Y              Z

   1  O       8.00    0.024354790    2.196491044    0.000000000
   2  O       8.00    0.024354790   -2.196491044    0.000000000
   3  O       8.00   10.872801969    0.000000000    0.000000000
   4  H       1.00    9.774606525    1.441989540    0.000000000
   5  H       1.00    9.774606525   -1.441989540    0.000000000
   6  C       6.00    0.006876713    0.000000000    0.000000000

 Bond lengths in Bohr (Angstrom)

 1-6  2.196560581  2-6  2.196560581  3-4  1.812558155  3-5  1.812558155
     (1.162369798)     (1.162369798)     (0.959164466)     (0.959164466)

 Bond angles

  1-6-2  179.08818302   4-3-5  105.41539946

 NUCLEAR CHARGE:                   32
 NUMBER OF PRIMITIVE AOS:         322
 NUMBER OF SYMMETRY AOS:          282
 NUMBER OF CONTRACTIONS:          230   (  84A1  +  68B1  +  45B2  +  33A2  )
 NUMBER OF CORE ORBITALS:           4   (   3A1  +   1B1  +   0B2  +   0A2  )
 NUMBER OF VALENCE ORBITALS:       18   (   8A1  +   6B1  +   3B2  +   1A2  )


 NUCLEAR REPULSION ENERGY   87.81805619


 Eigenvalues of metric

         1 0.368E-03 0.387E-03 0.899E-03 0.172E-02 0.314E-02 0.321E-02 0.400E-02 0.460E-02
         2 0.340E-03 0.389E-03 0.922E-03 0.165E-02 0.174E-02 0.332E-02 0.501E-02 0.622E-02
         3 0.318E-02 0.589E-02 0.136E-01 0.294E-01 0.317E-01 0.365E-01 0.590E-01 0.641E-01
         4 0.348E-02 0.124E-01 0.296E-01 0.362E-01 0.560E-01 0.681E-01 0.111E+00 0.140E+00


 Contracted 2-electron integrals neglected if value below      1.0D-11
 AO integral compression algorithm  1   Integral accuracy      1.0D-11

     253.231 MB (compressed) written to integral file ( 28.6%)

     Node minimum: 80.216 MB, node maximum: 89.915 MB


 NUMBER OF SORTED TWO-ELECTRON INTEGRALS:   30156294.     BUFFER LENGTH:  32768
 NUMBER OF SEGMENTS:   2  SEGMENT LENGTH:   15999663      RECORD LENGTH: 524288

 Memory used in sort:      16.56 MW

 SORT1 READ   110724956. AND WROTE    17433414. INTEGRALS IN     51 RECORDS. CPU TIME:     1.93 SEC, REAL TIME:     2.12 SEC
 SORT2 READ    52854202. AND WROTE    90461370. INTEGRALS IN    918 RECORDS. CPU TIME:     0.54 SEC, REAL TIME:     0.70 SEC

 Node minimum:    30151286.  Node maximum:    30156294. integrals

 OPERATOR DM      FOR CENTER  0  COORDINATES:    0.000000    0.000000    0.000000


 **********************************************************************************************************************************
 DATASETS  * FILE   NREC   LENGTH (MB)   RECORD NAMES
              1      18        3.24       500      610      700      900      950      970     1000      129      960     1100   
                                          VAR    BASINP    GEOM    SYMINP    ZMAT    AOBASIS   BASIS     P2S    ABASIS      S 
                                         1400     1410     1200     1210     1080     1600     1650     1700   
                                           T        V       H0       H01     AOSYM     SMH    MOLCAS    OPER   

 PROGRAMS   *        TOTAL       INT
 CPU TIMES  *         4.53      4.43
 REAL TIME  *         4.99 SEC
 DISK USED  *       876.26 MB      
 GA USED    *         0.00 MB       (max)       0.00 MB       (current)
 **********************************************************************************************************************************

1PROGRAM * RHF-SCF (CLOSED SHELL)       Authors: W. Meyer, H.-J. Werner


 NUMBER OF ELECTRONS:      16+   16-
 CONVERGENCE THRESHOLDS:    1.00E-05 (Density)    1.00E-07 (Energy)
 MAX. NUMBER OF ITERATIONS:       60
 INTERPOLATION TYPE:            DIIS
 INTERPOLATION STEPS:              2 (START)      1 (STEP)
 LEVEL SHIFTS:                  0.00 (CLOSED)  0.00 (OPEN) 



 Orbital guess generated from atomic densities. Full valence occupancy:   11   7   3   1

 Molecular orbital dump at record        2100.2

 Initial alpha occupancy:   8   5   2   1
 Initial beta  occupancy:   8   5   2   1
 Wave function symmetry:    1

 ITERATION    DDIFF          GRAD             ENERGY        2-EL.EN.            DIPOLE MOMENTS         DIIS
    1      0.000D+00      0.000D+00      -263.65968778    370.606079   -1.15227    0.00000    0.00000    0
    2      0.000D+00      0.883D-02      -263.72502197    366.282872   -0.68494    0.00000    0.00000    1
    3      0.142D-01      0.601D-02      -263.76870384    368.785290   -0.79904    0.00000    0.00000    2
    4      0.584D-02      0.562D-03      -263.76919948    368.568891   -0.80245    0.00000    0.00000    3
    5      0.690D-03      0.164D-03      -263.76925749    368.574825   -0.79715    0.00000    0.00000    4
    6      0.256D-03      0.657D-04      -263.76926461    368.588709   -0.79787    0.00000    0.00000    5
    7      0.846D-04      0.162D-04      -263.76926534    368.580583   -0.79741    0.00000    0.00000    6
    8      0.278D-04      0.356D-05      -263.76926539    368.581877   -0.79741    0.00000    0.00000    7
    9      0.763D-05      0.119D-05      -263.76926539    368.581706   -0.79738    0.00000    0.00000    0

 Final occupancy:   8   5   2   1

 !RHF STATE 1.1 Energy               -263.769265393171
 Nuclear energy                        87.81805619
 One-electron energy                 -535.87817437
 Two-electron energy                  184.29085279
 Virial quotient                       -1.00184322
 !RHF STATE 1.1 Dipole moment          -0.79738185     0.00000000     0.00000000
 Dipole moment /Debye                  -2.02660976     0.00000000     0.00000000

 Orbital energies:

         1.1          2.1          3.1          4.1          5.1          6.1          7.1          8.1          9.1         10.1
    -20.659681   -20.568568   -11.468474    -1.537210    -1.353382    -0.807458    -0.721395    -0.584164     0.025839     0.052220

         1.2          2.2          3.2          4.2          5.2          6.2          7.2
    -20.659727    -1.484145    -0.749641    -0.719900    -0.551005     0.047526     0.082640

         1.3          2.3          3.3          4.3
     -0.721249    -0.511310     0.068031     0.158915

         1.4          2.4          3.4
     -0.550924     0.158607     0.265104


 **********************************************************************************************************************************
 DATASETS  * FILE   NREC   LENGTH (MB)   RECORD NAMES
              1      18        3.25       500      610      700      900      950      970     1000      129      960     1100   
                                          VAR    BASINP    GEOM    SYMINP    ZMAT    AOBASIS   BASIS     P2S    ABASIS      S 
                                         1400     1410     1200     1210     1080     1600     1650     1700   
                                           T        V       H0       H01     AOSYM     SMH    MOLCAS    OPER   

              2       3        0.68       700     1000     2100   
                                         GEOM     BASIS     RHF  

 PROGRAMS   *        TOTAL        HF       INT
 CPU TIMES  *         5.80      1.27      4.43
 REAL TIME  *         6.35 SEC
 DISK USED  *       893.77 MB      
 SF USED    *         0.06 MB      
 GA USED    *         0.00 MB       (max)       0.00 MB       (current)
 **********************************************************************************************************************************


1PROGRAM * CCSD (Closed-shell coupled cluster)     Authors: C. Hampel, H.-J. Werner, 1991, M. Deegan, P.J. Knowles, 1992

                                  CCSD-F12 implementation by  H.-J. Werner, 2007

                   Density fitting integral evaluation by F.R. Manby, 2003,2007, G. Knizia, 2010

 Basis set CC-PVTZ/JKFIT generated.      Number of basis functions:   376 
 Basis set AUG-CC-PVTZ/MP2FIT generated. Number of basis functions:   516 

 Convergence thresholds:  THRVAR = 1.00D-08  THRDEN = 1.00D-06

 CCSD(T)     terms to be evaluated (factor= 1.000)


 Number of core orbitals:           4 (   3   1   0   0 )
 Number of closed-shell orbitals:  12 (   5   4   2   1 )
 Number of external orbitals:     214 (  76  63  43  32 )

 Molecular orbitals read from record     2100.2  Type=RHF/CANONICAL (state 1.1)

 MP2-F12 correlation treatment (H.-J. Werner, 2006)
 --------------------------------------------------

 Using MP2-F12 with ansatz 3C(FIX)

 Using projected zeroth-order Hamiltonian (+Z)

 FOCKRIB=T FOCKRIC=T FOCKRIP=T CABSP=T CABSA=T CABSK=T CABSF=T GBC=F EBC=F DMAT=T NOFIK=T NOPAO=1 SOLVE=-1  USEPAO=0
 EXCH_A= T EXCH_B= F EXCH_C= F EXCH_P= F
 
 Geminal basis:    OPTFULL  GEM_TYPE=SLATER  BETA=1.0  NGEM=6

 Optimizing Gaussian exponents for each gem_beta

 Geminal optimization for beta= 1.0000
 Weight function:   m=0, omega= 1.4646

 Augmented Hessian optimization of geminal fit. Trust ratio= 0.40000
 Convergence reached after   2 iterations. Final gradient= 8.24D-16, Step= 4.32D-06, Delta= 1.28D-09
 
 Alpha:                 0.19532     0.81920     2.85917     9.50073    35.69989   197.79328
 Coeff:                 0.27070     0.30552     0.18297     0.10986     0.06810     0.04224
 

 Symmetry turned off. Reference energy:       -263.769265393172

 All pairs explicitly correlated. Number of r12-pairs:           78
 
 AO(A)-basis ORBITAL           loaded. Number of functions:     230
 RI(R)-basis CC-PVTZ/JKFIT     loaded. Number of functions:     376
 DF-basis CC-PVTZ/JKFIT        loaded. Number of functions:     376

 Screening thresholds:   THRAO=  1.00D-10  THRMO=  1.00D-09  THRPROD=  1.00D-09
                         THRSW=  1.00D-05  THROV=  1.00D-12  THRF12=   1.00D-08

 CPU time for Fock operators                      0.89 sec
 
 Construction of ABS:
 Smallest eigenvalue of S          2.57E-04  (threshold= 1.00E-08)
 Ratio eigmin/eigmax               1.83E-06  (threshold= 1.00E-09)
 Smallest eigenvalue of S kept     2.57E-04  (threshold= 2.57E-04, 0 functions deleted, 376 kept)
 
 Construction of CABS:
 Smallest eigenvalue of S          2.29E-08  (threshold= 1.00E-08)
 Ratio eigmin/eigmax               2.29E-08  (threshold= 1.00E-09)
 Smallest eigenvalue of S kept     2.29E-08  (threshold= 2.29E-08, 0 functions deleted, 376 kept)
 
 CPU time for CABS singles                        0.17 sec

 CABS-singles contribution of  -0.01592671 patched into reference energy.
 New reference energy        -263.78519210
 
 AO(A)-basis ORBITAL           loaded. Number of functions:     230
 RI(R)-basis CC-PVTZ/JKFIT     loaded. Number of functions:     376
 DF-basis AUG-CC-PVTZ/MP2FIT   loaded. Number of functions:     516

 Screening thresholds:   THRAO=  1.00D-10  THRMO=  1.00D-09  THRPROD=  1.00D-09
                         THRSW=  1.00D-05  THROV=  1.00D-12  THRF12=   1.00D-08

 CPU time for 3-index integral evaluation         2.07 sec
 CPU time for first  half transformation          0.27 sec ( 9666.1 MFLOP/sec)
 CPU time for second half transformation          0.02 sec ( 5026.0 MFLOP/sec)
 CPU time for sorting                             0.16 sec
 CPU time for fitting                             0.04 sec (34826.3 MFLOP/sec)
 CPU time for tilde quantities                    0.07 sec (26412.6 MFLOP/sec)
 CPU time for assembly                            0.76 sec (29135.1 MFLOP/sec)
 CPU time for tranop_f12                          0.84 sec (34928.7 MFLOP/sec)
 CPU time for f12 integrals (total)               6.10 sec
 F12-matrices built in  3 passes.
 F12-matrices built in  3 passes.
 F12-matrices built in  3 passes.
 F12-matrices built in  3 passes.
 FC-matrix built in  3 passes.
 CPU time for f12 matrices (total)                0.46 sec

 Diagonal F12 approximation with fixed coefficients:  TSING= 0.500,  TTRIP= 0.250 (scaled by -1/beta)

 DF-MP2-F12 energy corrections:
 ------------------------------
 Approx.                                    Singlet             Triplet             Total
 DF-MP2-F12/3*C(DX,FIX)                -0.097434304433     -0.016930357362     -0.114364661796
 DF-MP2-F12/3*C(FIX)                   -0.079853397895     -0.013393369570     -0.093246767465
 DF-MP2-F12/3C(FIX)                    -0.080215472441     -0.013416880598     -0.093632353038

 DF-MP2-F12 correlation energies:
 --------------------------------
 Approx.                                    Singlet             Triplet             Ecorr            Total Energy
 DF-MP2                                -0.537819904082     -0.343171435199     -0.880991339281   -264.666183441531
 DF-MP2-F12/3*C(DX,FIX)                -0.635254208515     -0.360101792561     -0.995356001076   -264.780548103327
 DF-MP2-F12/3*C(FIX)                   -0.617673301977     -0.356564804768     -0.974238106745   -264.759430208996
 DF-MP2-F12/3C(FIX)                    -0.618035376522     -0.356588315797     -0.974623692319   -264.759815794570

 SCS-DF-MP2 energies (F_SING= 1.20000  F_TRIP= 0.62222  F_PARALLEL= 0.33333):
 ----------------------------------------------------------------------------
 SCS-DF-MP2                            -0.858912777911   -264.644104880162
 SCS-DF-MP2-F12/3*C(DX,FIX)            -0.986368387812   -264.771560490063
 SCS-DF-MP2-F12/3*C(FIX)               -0.963070507562   -264.748262609812
 SCS-DF-MP2-F12/3C(FIX)                -0.963519626100   -264.748711728351

 Symmetry restored.
 Symmetry transformation completed.

 Number of N-1 electron functions:              12
 Number of N-2 electron functions:              78
 Number of singly external CSFs:               750
 Number of doubly external CSFs:            844332
 Total number of CSFs:                      845083

 Pair and operator lists are different

 Length of J-op  integral file:             462.28 MB
 Length of K-op  integral file:             502.25 MB
 Length of 3-ext integral record:             0.00 MB

 Memory could be reduced to 38.71 Mwords without degradation in triples

 Integral transformation finished. Total CPU:   1.44 sec, npass=  1  Memory used:   7.09 MW

 Reference energy:                   -263.78519210

 Adding F12 terms to K(Cij), methodcc=6,  factor=1.0

 ITER.      SQ.NORM     CORR.ENERGY   TOTAL ENERGY   ENERGY CHANGE        DEN1      VAR(S)    VAR(P)  DIIS     TIME
   1      1.20224223    -0.86290953  -264.64810164     0.01809807     0.04676309  0.72D-02  0.56D-02  1  1    10.20
   2      1.21657158    -0.85867472  -264.64386682     0.00423482    -0.02017325  0.86D-04  0.59D-03  2  2    11.11
   3      1.22193860    -0.85877072  -264.64396283    -0.00009601    -0.00236559  0.13D-03  0.32D-04  3  3    12.04
   4      1.22474416    -0.85864237  -264.64383447     0.00012836    -0.00141260  0.76D-05  0.41D-05  4  4    12.96
   5      1.22577619    -0.85860456  -264.64379666     0.00003781    -0.00036695  0.56D-06  0.29D-06  5  5    13.90
   6      1.22593890    -0.85857766  -264.64376976     0.00002690    -0.00000808  0.40D-07  0.24D-07  6  6    14.83
   7      1.22596839    -0.85857523  -264.64376733     0.00000243    -0.00000624  0.25D-08  0.40D-08  6  4    15.77
   8      1.22596872    -0.85857475  -264.64376685     0.00000048     0.00000195  0.39D-09  0.27D-09  6  1    16.71
   9      1.22596935    -0.85857481  -264.64376692    -0.00000007     0.00000056  0.26D-10  0.21D-10  6  2    17.66

 Norm of t1 vector:      0.10603380      S-energy:    -0.00000002      T1 diagnostic:  0.01530466
                                                                       D1 diagnostic:  0.04497341

 Adding energy correction from Wij-K(Fij), methodcc=6  factor=1.0
 
  CCSD correlation energy              -0.858574813156
  MP2-F12 correction (uncoupled)       -0.092474648289
  C*T doubles correction               -0.001475293185
  f12b correction                       0.015407151481


 Total CPU time for triples:     26.98 sec


 RESULTS
 =======

  Reference energy                   -263.769265393172
  F12 singles correction               -0.015926709079

 F12 singles corrections added to reference energy

  New reference energy               -263.785192102251

  F12a singlet correction              -0.080414652918
  F12a triplet correction              -0.013535288556
  F12a total correction                -0.093949941474

 F12a corrections for ansatz F12/3C(FIX) added to CCSD energy
 
  CCSD-F12a singlet pair energy        -0.641962934155
  CCSD-F12a triplet pair energy        -0.310561795848
  CCSD-F12a correlation energy         -0.952524754630

  Triples (T) contribution             -0.037671246090
  Total correlation energy             -0.990196000719

  CCSD-F12a total energy             -264.737716856880
  CCSD[T]-F12a energy                -264.777936642452
  CCSD-T-F12a energy                 -264.774448848185
 !CCSD(T)-F12a total energy          -264.775388102970

 F12b corrections for ansatz F12/3C(FIX) added to CCSD(T)-F12a energy

  CCSD-F12b singlet pair energy        -0.627779058415
  CCSD-F12b triplet pair energy        -0.309338520107
  CCSD-F12b correlation energy         -0.937117603149

  Triples (T) contribution             -0.037671246090
  Total correlation energy             -0.974788849238

  CCSD-F12b total energy             -264.722309705399
  CCSD[T]-F12b energy                -264.762529490971
  CCSD-T-F12b energy                 -264.759041696704
 !CCSD(T)-F12b total energy          -264.759980951489

 Timing summary (sec):

 STEP                 CPU(USER)    SYS     CPU(TOT)    WALL
 Transformation          1.45      0.23      1.68      1.68
 CCSD iterations         8.24      0.68      8.92      8.91
 Triples                26.98      0.68     27.66     27.64
 MP2-F12                 7.98      1.10      9.08      9.08
 F12b energy             0.55      0.02      0.57      0.58

 Program statistics:

 Available memory in ccsd:                99998934
 Min. memory needed in ccsd:               2252999
 Max. memory used in ccsd:                 3011949
 Max. memory used in cckext:               2777209 (10 integral passes)



 **********************************************************************************************************************************
 DATASETS  * FILE   NREC   LENGTH (MB)   RECORD NAMES
              1      20      137.17       500      610      700      900      950      970     1000      129      960     1100   
                                          VAR    BASINP    GEOM    SYMINP    ZMAT    AOBASIS   BASIS     P2S    ABASIS      S 
                                         1400     1410     1200     1210     1080     1600     1650     1700      960(1)  1380   
                                           T        V       H0       H01     AOSYM     SMH    MOLCAS    OPER    ABASIS    JKOP   

              2       5        0.98       700     1000     2100     7360     7350   
                                         GEOM     BASIS     RHF    F12ABS    EF12   

 PROGRAMS   *        TOTAL   CCSD(T)        HF       INT
 CPU TIMES  *        51.25     45.45      1.27      4.43
 REAL TIME  *        54.51 SEC
 DISK USED  *         1.12 GB      
 SF USED    *         1.34 GB      
 GA USED    *         2.40 MB       (max)       0.00 MB       (current)
 **********************************************************************************************************************************

     CCSD(T)-F12        HF-SCF  
   -264.75998095   -263.76926539
 **********************************************************************************************************************************
 Variable memory released
