
 Primary working directories    : /scratch/kee
 Secondary working directories  : /scratch/kee
 Wavefunction directory         : /home/kee/wfu/
 Main file repository           : /scratch/kee/

 ARCHNAME  : Linux/x86_64
 FC        : /opt/intel/composer_xe_2015.0.090/bin/intel64/ifort
 FCVERSION : 15.0.0
 BLASLIB   : -L/opt/intel/mkl/lib/intel64 -lmkl_intel_ilp64 -lmkl_sequential -lmkl_core
 id        : emory

 Nodes     nprocs
 node19       3
 Number of processes for MPI-2 version of Molpro:   nprocs(total)=    4   nprocs(compute)=    3   nprocs(helper)=    1
 ga_uses_ma=false, calling ma_init with nominal heap.
 GA-space will be limited to   8.0 MW (determined by -G option)

 Using customized tuning parameters: mindgm=7; mindgv=32; mindgc=1; mindgr=1; noblas=0; mincuda=1000; minvec=7
 default implementation of scratch files=sf  

 ***,co2h2o
 memory,100,m
 basis avtz
 geomtype = xyz
 geometry = {
 6
       0.00000000
 O     0.01288800    1.16233300    0.00000000
 O     0.01288800   -1.16233300    0.00000000
 O     6.15363900    0.00000000    0.00000000
 H     5.57249900    0.76306800    0.00000000
 H     5.57249900   -0.76306800    0.00000000
 C     0.00363900    0.00000000    0.00000000
 }
 hf
 ccsd(t)-f12
 ---

 Variables initialized (665), CPU time= 0.00 sec
 Commands  initialized (462), CPU time= 0.01 sec, 486 directives.
 Default parameters read. Elapsed time= 0.03 sec

 Checking input...
 Passed
1


                                         ***  PROGRAM SYSTEM MOLPRO  ***
                         Copyright, University College Cardiff Consultants Limited, 2008

                                    Version 2010.1 linked 9 Dec 2014 15:06:28 


 **********************************************************************************************************************************
 LABEL *   co2h2o                                                                        
 Linux-2.6.32-504.el6.x86_64/node19(x86_64) 64 bit mpp version                           DATE: 15-Dec-16          TIME: 00:21:32  
 **********************************************************************************************************************************

 Patch level:      19
 **********************************************************************************************************************************

 Variable memory set to  100000000 words,  buffer space   230000 words

 SETTING BASIS          =    AVTZ
 SETTING GEOMTYPE       =    XYZ

Geometry recognized as XYZ



 Recomputing integrals since basis changed


 Using spherical harmonics

 Library entry O      S aug-cc-pVTZ          selected for orbital group  1
 Library entry O      P aug-cc-pVTZ          selected for orbital group  1
 Library entry O      D aug-cc-pVTZ          selected for orbital group  1
 Library entry O      F aug-cc-pVTZ          selected for orbital group  1
 Library entry H      S aug-cc-pVTZ          selected for orbital group  2
 Library entry H      P aug-cc-pVTZ          selected for orbital group  2
 Library entry H      D aug-cc-pVTZ          selected for orbital group  2
 Library entry C      S aug-cc-pVTZ          selected for orbital group  3
 Library entry C      P aug-cc-pVTZ          selected for orbital group  3
 Library entry C      D aug-cc-pVTZ          selected for orbital group  3
 Library entry C      F aug-cc-pVTZ          selected for orbital group  3

1PROGRAM * SEWARD (Integral evaluation for generally contracted gaussian basis sets)     Author: Roland Lindh, 1990

 Geometry written to block  1 of record 700


 Point group  C2v 



 ATOMIC COORDINATES

 NR  ATOM    CHARGE       X              Y              Z

   1  O       8.00    0.024354790    2.196491044    0.000000000
   2  O       8.00    0.024354790   -2.196491044    0.000000000
   3  O       8.00   11.628692422    0.000000000    0.000000000
   4  H       1.00   10.530496978    1.441989540    0.000000000
   5  H       1.00   10.530496978   -1.441989540    0.000000000
   6  C       6.00    0.006876713    0.000000000    0.000000000

 Bond lengths in Bohr (Angstrom)

 1-6  2.196560581  2-6  2.196560581  3-4  1.812558155  3-5  1.812558155
     (1.162369798)     (1.162369798)     (0.959164466)     (0.959164466)

 Bond angles

  1-6-2  179.08818302   4-3-5  105.41539946

 NUCLEAR CHARGE:                   32
 NUMBER OF PRIMITIVE AOS:         322
 NUMBER OF SYMMETRY AOS:          282
 NUMBER OF CONTRACTIONS:          230   (  84A1  +  68B1  +  45B2  +  33A2  )
 NUMBER OF CORE ORBITALS:           4   (   3A1  +   1B1  +   0B2  +   0A2  )
 NUMBER OF VALENCE ORBITALS:       18   (   8A1  +   6B1  +   3B2  +   1A2  )


 NUCLEAR REPULSION ENERGY   86.50331498


 Eigenvalues of metric

         1 0.368E-03 0.393E-03 0.899E-03 0.178E-02 0.316E-02 0.321E-02 0.402E-02 0.472E-02
         2 0.343E-03 0.389E-03 0.922E-03 0.165E-02 0.175E-02 0.336E-02 0.508E-02 0.624E-02
         3 0.318E-02 0.591E-02 0.136E-01 0.295E-01 0.318E-01 0.365E-01 0.590E-01 0.641E-01
         4 0.348E-02 0.124E-01 0.296E-01 0.362E-01 0.560E-01 0.680E-01 0.111E+00 0.140E+00


 Contracted 2-electron integrals neglected if value below      1.0D-11
 AO integral compression algorithm  1   Integral accuracy      1.0D-11

     234.619 MB (compressed) written to integral file ( 27.0%)

     Node minimum: 74.187 MB, node maximum: 83.100 MB


 NUMBER OF SORTED TWO-ELECTRON INTEGRALS:   30156294.     BUFFER LENGTH:  32768
 NUMBER OF SEGMENTS:   2  SEGMENT LENGTH:   15999663      RECORD LENGTH: 524288

 Memory used in sort:      16.56 MW

 SORT1 READ   108806000. AND WROTE    15825418. INTEGRALS IN     46 RECORDS. CPU TIME:     1.88 SEC, REAL TIME:     2.08 SEC
 SORT2 READ    47951977. AND WROTE    90461370. INTEGRALS IN    849 RECORDS. CPU TIME:     0.52 SEC, REAL TIME:     0.68 SEC

 Node minimum:    30151286.  Node maximum:    30156294. integrals

 OPERATOR DM      FOR CENTER  0  COORDINATES:    0.000000    0.000000    0.000000


 **********************************************************************************************************************************
 DATASETS  * FILE   NREC   LENGTH (MB)   RECORD NAMES
              1      18        3.24       500      610      700      900      950      970     1000      129      960     1100   
                                          VAR    BASINP    GEOM    SYMINP    ZMAT    AOBASIS   BASIS     P2S    ABASIS      S 
                                         1400     1410     1200     1210     1080     1600     1650     1700   
                                           T        V       H0       H01     AOSYM     SMH    MOLCAS    OPER   

 PROGRAMS   *        TOTAL       INT
 CPU TIMES  *         4.45      4.39
 REAL TIME  *         4.90 SEC
 DISK USED  *       799.78 MB      
 GA USED    *         0.00 MB       (max)       0.00 MB       (current)
 **********************************************************************************************************************************

1PROGRAM * RHF-SCF (CLOSED SHELL)       Authors: W. Meyer, H.-J. Werner


 NUMBER OF ELECTRONS:      16+   16-
 CONVERGENCE THRESHOLDS:    1.00E-05 (Density)    1.00E-07 (Energy)
 MAX. NUMBER OF ITERATIONS:       60
 INTERPOLATION TYPE:            DIIS
 INTERPOLATION STEPS:              2 (START)      1 (STEP)
 LEVEL SHIFTS:                  0.00 (CLOSED)  0.00 (OPEN) 



 Orbital guess generated from atomic densities. Full valence occupancy:   11   7   3   1

 Molecular orbital dump at record        2100.2

 Initial alpha occupancy:   8   5   2   1
 Initial beta  occupancy:   8   5   2   1
 Wave function symmetry:    1

 ITERATION    DDIFF          GRAD             ENERGY        2-EL.EN.            DIPOLE MOMENTS         DIIS
    1      0.000D+00      0.000D+00      -263.65980531    368.034140   -1.15220    0.00000    0.00000    0
    2      0.000D+00      0.882D-02      -263.72511994    363.683720   -0.68289    0.00000    0.00000    1
    3      0.142D-01      0.600D-02      -263.76874082    366.192949   -0.79737    0.00000    0.00000    2
    4      0.584D-02      0.563D-03      -263.76923647    365.977031   -0.80090    0.00000    0.00000    3
    5      0.690D-03      0.164D-03      -263.76929449    365.982583   -0.79556    0.00000    0.00000    4
    6      0.256D-03      0.658D-04      -263.76930162    365.996520   -0.79628    0.00000    0.00000    5
    7      0.846D-04      0.162D-04      -263.76930235    365.988377   -0.79582    0.00000    0.00000    6
    8      0.278D-04      0.356D-05      -263.76930240    365.989671   -0.79583    0.00000    0.00000    7
    9      0.762D-05      0.119D-05      -263.76930240    365.989497   -0.79579    0.00000    0.00000    0

 Final occupancy:   8   5   2   1

 !RHF STATE 1.1 Energy               -263.769302399839
 Nuclear energy                        86.50331498
 One-electron energy                 -533.26736604
 Two-electron energy                  182.99474866
 Virial quotient                       -1.00184372
 !RHF STATE 1.1 Dipole moment          -0.79579491     0.00000000     0.00000000
 Dipole moment /Debye                  -2.02257644     0.00000000     0.00000000

 Orbital energies:

         1.1          2.1          3.1          4.1          5.1          6.1          7.1          8.1          9.1         10.1
    -20.658945   -20.568309   -11.467749    -1.536471    -1.353124    -0.806740    -0.720637    -0.583921     0.025367     0.051319

         1.2          2.2          3.2          4.2          5.2          6.2          7.2
    -20.658990    -1.483410    -0.748927    -0.719655    -0.550265     0.047049     0.081650

         1.3          2.3          3.3          4.3
     -0.720525    -0.511062     0.068376     0.158445

         1.4          2.4          3.4
     -0.550204     0.159230     0.264581


 **********************************************************************************************************************************
 DATASETS  * FILE   NREC   LENGTH (MB)   RECORD NAMES
              1      18        3.25       500      610      700      900      950      970     1000      129      960     1100   
                                          VAR    BASINP    GEOM    SYMINP    ZMAT    AOBASIS   BASIS     P2S    ABASIS      S 
                                         1400     1410     1200     1210     1080     1600     1650     1700   
                                           T        V       H0       H01     AOSYM     SMH    MOLCAS    OPER   

              2       3        0.68       700     1000     2100   
                                         GEOM     BASIS     RHF  

 PROGRAMS   *        TOTAL        HF       INT
 CPU TIMES  *         5.73      1.28      4.39
 REAL TIME  *         6.25 SEC
 DISK USED  *       817.29 MB      
 SF USED    *         0.06 MB      
 GA USED    *         0.00 MB       (max)       0.00 MB       (current)
 **********************************************************************************************************************************


1PROGRAM * CCSD (Closed-shell coupled cluster)     Authors: C. Hampel, H.-J. Werner, 1991, M. Deegan, P.J. Knowles, 1992

                                  CCSD-F12 implementation by  H.-J. Werner, 2007

                   Density fitting integral evaluation by F.R. Manby, 2003,2007, G. Knizia, 2010

 Basis set CC-PVTZ/JKFIT generated.      Number of basis functions:   376 
 Basis set AUG-CC-PVTZ/MP2FIT generated. Number of basis functions:   516 

 Convergence thresholds:  THRVAR = 1.00D-08  THRDEN = 1.00D-06

 CCSD(T)     terms to be evaluated (factor= 1.000)


 Number of core orbitals:           4 (   3   1   0   0 )
 Number of closed-shell orbitals:  12 (   5   4   2   1 )
 Number of external orbitals:     214 (  76  63  43  32 )

 Molecular orbitals read from record     2100.2  Type=RHF/CANONICAL (state 1.1)

 MP2-F12 correlation treatment (H.-J. Werner, 2006)
 --------------------------------------------------

 Using MP2-F12 with ansatz 3C(FIX)

 Using projected zeroth-order Hamiltonian (+Z)

 FOCKRIB=T FOCKRIC=T FOCKRIP=T CABSP=T CABSA=T CABSK=T CABSF=T GBC=F EBC=F DMAT=T NOFIK=T NOPAO=1 SOLVE=-1  USEPAO=0
 EXCH_A= T EXCH_B= F EXCH_C= F EXCH_P= F
 
 Geminal basis:    OPTFULL  GEM_TYPE=SLATER  BETA=1.0  NGEM=6

 Optimizing Gaussian exponents for each gem_beta

 Geminal optimization for beta= 1.0000
 Weight function:   m=0, omega= 1.4646

 Augmented Hessian optimization of geminal fit. Trust ratio= 0.40000
 Convergence reached after   2 iterations. Final gradient= 8.24D-16, Step= 4.32D-06, Delta= 1.28D-09
 
 Alpha:                 0.19532     0.81920     2.85917     9.50073    35.69989   197.79328
 Coeff:                 0.27070     0.30552     0.18297     0.10986     0.06810     0.04224
 

 Symmetry turned off. Reference energy:       -263.769302399839

 All pairs explicitly correlated. Number of r12-pairs:           78
 
 AO(A)-basis ORBITAL           loaded. Number of functions:     230
 RI(R)-basis CC-PVTZ/JKFIT     loaded. Number of functions:     376
 DF-basis CC-PVTZ/JKFIT        loaded. Number of functions:     376

 Screening thresholds:   THRAO=  1.00D-10  THRMO=  1.00D-09  THRPROD=  1.00D-09
                         THRSW=  1.00D-05  THROV=  1.00D-12  THRF12=   1.00D-08

 CPU time for Fock operators                      0.90 sec
 
 Construction of ABS:
 Smallest eigenvalue of S          2.57E-04  (threshold= 1.00E-08)
 Ratio eigmin/eigmax               1.83E-06  (threshold= 1.00E-09)
 Smallest eigenvalue of S kept     2.57E-04  (threshold= 2.57E-04, 0 functions deleted, 376 kept)
 
 Construction of CABS:
 Smallest eigenvalue of S          2.30E-08  (threshold= 1.00E-08)
 Ratio eigmin/eigmax               2.30E-08  (threshold= 1.00E-09)
 Smallest eigenvalue of S kept     2.30E-08  (threshold= 2.30E-08, 0 functions deleted, 376 kept)
 
 CPU time for CABS singles                        0.16 sec

 CABS-singles contribution of  -0.01592514 patched into reference energy.
 New reference energy        -263.78522754
 
 AO(A)-basis ORBITAL           loaded. Number of functions:     230
 RI(R)-basis CC-PVTZ/JKFIT     loaded. Number of functions:     376
 DF-basis AUG-CC-PVTZ/MP2FIT   loaded. Number of functions:     516

 Screening thresholds:   THRAO=  1.00D-10  THRMO=  1.00D-09  THRPROD=  1.00D-09
                         THRSW=  1.00D-05  THROV=  1.00D-12  THRF12=   1.00D-08

 CPU time for 3-index integral evaluation         2.12 sec
 CPU time for first  half transformation          0.20 sec (13151.1 MFLOP/sec)
 CPU time for second half transformation          0.02 sec ( 5312.4 MFLOP/sec)
 CPU time for sorting                             0.16 sec
 CPU time for fitting                             0.06 sec (23217.5 MFLOP/sec)
 CPU time for tilde quantities                    0.06 sec (30814.7 MFLOP/sec)
 CPU time for assembly                            0.75 sec (31502.4 MFLOP/sec)
 CPU time for tranop_f12                          0.91 sec (33339.6 MFLOP/sec)
 CPU time for f12 integrals (total)               6.24 sec
 F12-matrices built in  3 passes.
 F12-matrices built in  3 passes.
 F12-matrices built in  3 passes.
 F12-matrices built in  3 passes.
 FC-matrix built in  3 passes.
 CPU time for f12 matrices (total)                0.49 sec

 Diagonal F12 approximation with fixed coefficients:  TSING= 0.500,  TTRIP= 0.250 (scaled by -1/beta)

 DF-MP2-F12 energy corrections:
 ------------------------------
 Approx.                                    Singlet             Triplet             Total
 DF-MP2-F12/3*C(DX,FIX)                -0.097440197735     -0.016931204764     -0.114371402499
 DF-MP2-F12/3*C(FIX)                   -0.079858911189     -0.013394152468     -0.093253063658
 DF-MP2-F12/3C(FIX)                    -0.080220446899     -0.013417431232     -0.093637878131

 DF-MP2-F12 correlation energies:
 --------------------------------
 Approx.                                    Singlet             Triplet             Ecorr            Total Energy
 DF-MP2                                -0.537803129561     -0.343148639382     -0.880951768943   -264.666179313564
 DF-MP2-F12/3*C(DX,FIX)                -0.635243327296     -0.360079844146     -0.995323171442   -264.780550716063
 DF-MP2-F12/3*C(FIX)                   -0.617662040751     -0.356542791850     -0.974204832601   -264.759432377222
 DF-MP2-F12/3C(FIX)                    -0.618023576460     -0.356566070614     -0.974589647074   -264.759817191695

 SCS-DF-MP2 energies (F_SING= 1.20000  F_TRIP= 0.62222  F_PARALLEL= 0.33333):
 ----------------------------------------------------------------------------
 SCS-DF-MP2                            -0.858878464422   -264.644106009043
 SCS-DF-MP2-F12/3*C(DX,FIX)            -0.986341673558   -264.771569218179
 SCS-DF-MP2-F12/3*C(FIX)               -0.963043297163   -264.748270841784
 SCS-DF-MP2-F12/3C(FIX)                -0.963491624578   -264.748719169199

 Symmetry restored.
 Symmetry transformation completed.

 Number of N-1 electron functions:              12
 Number of N-2 electron functions:              78
 Number of singly external CSFs:               750
 Number of doubly external CSFs:            844332
 Total number of CSFs:                      845083

 Pair and operator lists are different

 Length of J-op  integral file:             462.28 MB
 Length of K-op  integral file:             502.25 MB
 Length of 3-ext integral record:             0.00 MB

 Memory could be reduced to 38.71 Mwords without degradation in triples

 Integral transformation finished. Total CPU:   1.38 sec, npass=  1  Memory used:   7.09 MW

 Reference energy:                   -263.78522754

 Adding F12 terms to K(Cij), methodcc=6,  factor=1.0

 ITER.      SQ.NORM     CORR.ENERGY   TOTAL ENERGY   ENERGY CHANGE        DEN1      VAR(S)    VAR(P)  DIIS     TIME
   1      1.20222827    -0.86287499  -264.64810254     0.01809312     0.04675401  0.72D-02  0.56D-02  1  1    10.40
   2      1.21655519    -0.85864103  -264.64386857     0.00423396    -0.02017040  0.86D-04  0.59D-03  2  2    11.34
   3      1.22192137    -0.85873702  -264.64396456    -0.00009599    -0.00236547  0.13D-03  0.32D-04  3  3    12.27
   4      1.22472635    -0.85860874  -264.64383628     0.00012828    -0.00141244  0.76D-05  0.41D-05  4  4    13.23
   5      1.22575809    -0.85857095  -264.64379849     0.00003779    -0.00036690  0.56D-06  0.29D-06  5  5    14.17
   6      1.22592069    -0.85854406  -264.64377160     0.00002689    -0.00000808  0.40D-07  0.24D-07  6  6    15.12
   7      1.22595015    -0.85854163  -264.64376917     0.00000243    -0.00000624  0.25D-08  0.40D-08  6  4    16.05
   8      1.22595046    -0.85854114  -264.64376869     0.00000049     0.00000195  0.39D-09  0.27D-09  6  1    16.98
   9      1.22595109    -0.85854121  -264.64376875    -0.00000007     0.00000056  0.26D-10  0.21D-10  6  2    17.90

 Norm of t1 vector:      0.10602217      S-energy:    -0.00000002      T1 diagnostic:  0.01530298
                                                                       D1 diagnostic:  0.04496878

 Adding energy correction from Wij-K(Fij), methodcc=6  factor=1.0
 
  CCSD correlation energy              -0.858541209342
  MP2-F12 correction (uncoupled)       -0.092480656896
  C*T doubles correction               -0.001475317038
  f12b correction                       0.015407580504


 Total CPU time for triples:     26.90 sec


 RESULTS
 =======

  Reference energy                   -263.769302399839
  F12 singles correction               -0.015925144782

 F12 singles corrections added to reference energy

  New reference energy               -263.785227544621

  F12a singlet correction              -0.080419966048
  F12a triplet correction              -0.013536007885
  F12a total correction                -0.093955973933

 F12a corrections for ansatz F12/3C(FIX) added to CCSD energy
 
  CCSD-F12a singlet pair energy        -0.641953841166
  CCSD-F12a triplet pair energy        -0.310543317954
  CCSD-F12a correlation energy         -0.952497183275

  Triples (T) contribution             -0.037664932324
  Total correlation energy             -0.990162115599

  CCSD-F12a total energy             -264.737724727896
  CCSD[T]-F12a energy                -264.777937458483
  CCSD-T-F12a energy                 -264.774450661631
 !CCSD(T)-F12a total energy          -264.775389660220

 F12b corrections for ansatz F12/3C(FIX) added to CCSD(T)-F12a energy

  CCSD-F12b singlet pair energy        -0.627769557013
  CCSD-F12b triplet pair energy        -0.309320021604
  CCSD-F12b correlation energy         -0.937089602771

  Triples (T) contribution             -0.037664932324
  Total correlation energy             -0.974754535095

  CCSD-F12b total energy             -264.722317147393
  CCSD[T]-F12b energy                -264.762529877980
  CCSD-T-F12b energy                 -264.759043081127
 !CCSD(T)-F12b total energy          -264.759982079716

 Timing summary (sec):

 STEP                 CPU(USER)    SYS     CPU(TOT)    WALL
 Transformation          1.39      0.21      1.60      1.59
 CCSD iterations         8.39      0.62      9.01      9.01
 Triples                26.90      0.75     27.65     27.65
 MP2-F12                 8.13      1.07      9.20      9.21
 F12b energy             0.56      0.02      0.58      0.58

 Program statistics:

 Available memory in ccsd:                99998934
 Min. memory needed in ccsd:               2252999
 Max. memory used in ccsd:                 3011949
 Max. memory used in cckext:               2777209 (10 integral passes)



 **********************************************************************************************************************************
 DATASETS  * FILE   NREC   LENGTH (MB)   RECORD NAMES
              1      20      137.17       500      610      700      900      950      970     1000      129      960     1100   
                                          VAR    BASINP    GEOM    SYMINP    ZMAT    AOBASIS   BASIS     P2S    ABASIS      S 
                                         1400     1410     1200     1210     1080     1600     1650     1700      960(1)  1380   
                                           T        V       H0       H01     AOSYM     SMH    MOLCAS    OPER    ABASIS    JKOP   

              2       5        0.98       700     1000     2100     7360     7350   
                                         GEOM     BASIS     RHF    F12ABS    EF12   

 PROGRAMS   *        TOTAL   CCSD(T)        HF       INT
 CPU TIMES  *        51.23     45.50      1.28      4.39
 REAL TIME  *        54.51 SEC
 DISK USED  *         1.04 GB      
 SF USED    *         1.34 GB      
 GA USED    *         2.40 MB       (max)       0.00 MB       (current)
 **********************************************************************************************************************************

     CCSD(T)-F12        HF-SCF  
   -264.75998208   -263.76930240
 **********************************************************************************************************************************
 Variable memory released
