
 Primary working directories    : /scratch/kee
 Secondary working directories  : /scratch/kee
 Wavefunction directory         : /home/kee/wfu/
 Main file repository           : /scratch/kee/

 ARCHNAME  : Linux/x86_64
 FC        : /opt/intel/composer_xe_2015.0.090/bin/intel64/ifort
 FCVERSION : 15.0.0
 BLASLIB   : -L/opt/intel/mkl/lib/intel64 -lmkl_intel_ilp64 -lmkl_sequential -lmkl_core
 id        : emory

 Nodes     nprocs
 node15       3
 Number of processes for MPI-2 version of Molpro:   nprocs(total)=    4   nprocs(compute)=    3   nprocs(helper)=    1
 ga_uses_ma=false, calling ma_init with nominal heap.
 GA-space will be limited to   8.0 MW (determined by -G option)

 Using customized tuning parameters: mindgm=7; mindgv=32; mindgc=1; mindgr=1; noblas=0; mincuda=1000; minvec=7
 default implementation of scratch files=sf  

 ***,co2h2o
 memory,100,m
 basis avtz
 geomtype = xyz
 geometry = {
 6
       0.00000000
 O     0.02747900    1.16001200    0.00000000
 O    -0.00936500   -1.16396300    0.00000000
 O    15.77524266   -0.06545291    0.00000000
 H    16.16433766    0.37582109    0.75746400
 H    16.16433766    0.37582109   -0.75746400
 C     0.02536600   -0.00312200    0.00000000
 }
 hf
 ccsd(t)-f12
 ---

 Variables initialized (665), CPU time= 0.01 sec
 Commands  initialized (462), CPU time= 0.00 sec, 486 directives.
 Default parameters read. Elapsed time= 0.03 sec

 Checking input...
 Passed
1


                                         ***  PROGRAM SYSTEM MOLPRO  ***
                         Copyright, University College Cardiff Consultants Limited, 2008

                                    Version 2010.1 linked 9 Dec 2014 15:06:28 


 **********************************************************************************************************************************
 LABEL *   co2h2o                                                                        
 Linux-2.6.32-504.el6.x86_64/node15(x86_64) 64 bit mpp version                           DATE: 14-Dec-16          TIME: 23:45:08  
 **********************************************************************************************************************************

 Patch level:      19
 **********************************************************************************************************************************

 Variable memory set to  100000000 words,  buffer space   230000 words

 SETTING BASIS          =    AVTZ
 SETTING GEOMTYPE       =    XYZ

Geometry recognized as XYZ



 Recomputing integrals since basis changed


 Using spherical harmonics

 Library entry O      S aug-cc-pVTZ          selected for orbital group  1
 Library entry O      P aug-cc-pVTZ          selected for orbital group  1
 Library entry O      D aug-cc-pVTZ          selected for orbital group  1
 Library entry O      F aug-cc-pVTZ          selected for orbital group  1
 Library entry H      S aug-cc-pVTZ          selected for orbital group  2
 Library entry H      P aug-cc-pVTZ          selected for orbital group  2
 Library entry H      D aug-cc-pVTZ          selected for orbital group  2
 Library entry C      S aug-cc-pVTZ          selected for orbital group  3
 Library entry C      P aug-cc-pVTZ          selected for orbital group  3
 Library entry C      D aug-cc-pVTZ          selected for orbital group  3
 Library entry C      F aug-cc-pVTZ          selected for orbital group  3

1PROGRAM * SEWARD (Integral evaluation for generally contracted gaussian basis sets)     Author: Roland Lindh, 1990

 Geometry written to block  1 of record 700


 Point group  Cs  



 ATOMIC COORDINATES

 NR  ATOM    CHARGE       X              Y              Z

   1  O       8.00    0.051927784    2.192104989    0.000000000
   2  O       8.00   -0.017697285   -2.199571297    0.000000000
   3  O       8.00   29.810888284   -0.123688074    0.000000000
   4  H       1.00   30.546171273    0.710198935    1.431399514
   5  H       1.00   30.546171273    0.710198935   -1.431399514
   6  C       6.00    0.047934793   -0.005899725    0.000000000

 Bond lengths in Bohr (Angstrom)

 1-6  2.198008341  2-6  2.194653170  3-4  1.812432947  3-5  1.812432947
     (1.163135919)     (1.161360439)     (0.959098208)     (0.959098208)

 Bond angles

  1-6-2  178.39037465   4-3-5  104.32746287

 NUCLEAR CHARGE:                   32
 NUMBER OF PRIMITIVE AOS:         322
 NUMBER OF SYMMETRY AOS:          282
 NUMBER OF CONTRACTIONS:          230   ( 143A'  +  87A"  )
 NUMBER OF CORE ORBITALS:           4   (   4A'  +   0A"  )
 NUMBER OF VALENCE ORBITALS:       18   (  13A'  +   5A"  )


 NUCLEAR REPULSION ENERGY   74.79197168


 Eigenvalues of metric

         1 0.349E-03 0.386E-03 0.420E-03 0.903E-03 0.922E-03 0.175E-02 0.186E-02 0.317E-02
         2 0.395E-03 0.167E-02 0.318E-02 0.348E-02 0.509E-02 0.622E-02 0.100E-01 0.125E-01


 Contracted 2-electron integrals neglected if value below      1.0D-11
 AO integral compression algorithm  1   Integral accuracy      1.0D-11

     233.308 MB (compressed) written to integral file ( 39.4%)

     Node minimum: 72.876 MB, node maximum: 83.100 MB


 NUMBER OF SORTED TWO-ELECTRON INTEGRALS:   59530350.     BUFFER LENGTH:  32768
 NUMBER OF SEGMENTS:   4  SEGMENT LENGTH:   15999984      RECORD LENGTH: 524288

 Memory used in sort:      16.56 MW

 SORT1 READ    73994636. AND WROTE    15645685. INTEGRALS IN     46 RECORDS. CPU TIME:     0.98 SEC, REAL TIME:     1.13 SEC
 SORT2 READ    46779241. AND WROTE   178576926. INTEGRALS IN    885 RECORDS. CPU TIME:     0.53 SEC, REAL TIME:     0.67 SEC

 Node minimum:    59520934.  Node maximum:    59530350. integrals

 OPERATOR DM      FOR CENTER  0  COORDINATES:    0.000000    0.000000    0.000000


 **********************************************************************************************************************************
 DATASETS  * FILE   NREC   LENGTH (MB)   RECORD NAMES
              1      18        3.71       500      610      700      900      950      970     1000      129      960     1100   
                                          VAR    BASINP    GEOM    SYMINP    ZMAT    AOBASIS   BASIS     P2S    ABASIS      S 
                                         1400     1410     1200     1210     1080     1600     1650     1700   
                                           T        V       H0       H01     AOSYM     SMH    MOLCAS    OPER   

 PROGRAMS   *        TOTAL       INT
 CPU TIMES  *         3.09      3.02
 REAL TIME  *         3.49 SEC
 DISK USED  *       797.28 MB      
 GA USED    *         0.00 MB       (max)       0.00 MB       (current)
 **********************************************************************************************************************************

1PROGRAM * RHF-SCF (CLOSED SHELL)       Authors: W. Meyer, H.-J. Werner


 NUMBER OF ELECTRONS:      16+   16-
 CONVERGENCE THRESHOLDS:    1.00E-05 (Density)    1.00E-07 (Energy)
 MAX. NUMBER OF ITERATIONS:       60
 INTERPOLATION TYPE:            DIIS
 INTERPOLATION STEPS:              2 (START)      1 (STEP)
 LEVEL SHIFTS:                  0.00 (CLOSED)  0.00 (OPEN) 



 Orbital guess generated from atomic densities. Full valence occupancy:   17   5

 Molecular orbital dump at record        2100.2

 Initial alpha occupancy:  13   3
 Initial beta  occupancy:  13   3
 Wave function symmetry:    1

 ITERATION    DDIFF          GRAD             ENERGY        2-EL.EN.            DIPOLE MOMENTS         DIIS
    1      0.000D+00      0.000D+00      -263.66003917    345.029873    0.79962    0.84407    0.00000    0
    2      0.000D+00      0.643D-02      -263.72538954    340.493094    0.45341    0.50018    0.00000    1
    3      0.103D-01      0.437D-02      -263.76882864    343.049847    0.54140    0.58051    0.00000    2
    4      0.424D-02      0.410D-03      -263.76932406    342.836003    0.54347    0.58478    0.00000    3
    5      0.493D-03      0.119D-03      -263.76938214    342.839448    0.53981    0.58002    0.00000    4
    6      0.185D-03      0.482D-04      -263.76938932    342.853657    0.54024    0.58097    0.00000    5
    7      0.614D-04      0.119D-04      -263.76939005    342.845382    0.53994    0.58045    0.00000    6
    8      0.201D-04      0.264D-05      -263.76939010    342.846657    0.53994    0.58058    0.00000    7
    9      0.548D-05      0.104D-05      -263.76939010    342.846496    0.53992    0.58044    0.00000    0

 Final occupancy:  13   3

 !RHF STATE 1.1 Energy               -263.769390101533
 Nuclear energy                        74.79197168
 One-electron energy                 -509.98460969
 Two-electron energy                  171.42324790
 Virial quotient                       -1.00183197
 !RHF STATE 1.1 Dipole moment           0.53992369     0.58044071     0.00000000
 Dipole moment /Debye                   1.37225925     1.47523649     0.00000000

 Orbital energies:

         1.1          2.1          3.1          4.1          5.1          6.1          7.1          8.1          9.1         10.1
    -20.653149   -20.652591   -20.567702   -11.461667    -1.530496    -1.477384    -1.352874    -0.800747    -0.742968    -0.714551

        11.1         12.1         13.1         14.1         15.1
     -0.585056    -0.544188    -0.510358     0.029321     0.047906

         1.2          2.2          3.2          4.2          5.2
     -0.716562    -0.714559    -0.544206     0.047605     0.073452


 **********************************************************************************************************************************
 DATASETS  * FILE   NREC   LENGTH (MB)   RECORD NAMES
              1      18        3.72       500      610      700      900      950      970     1000      129      960     1100   
                                          VAR    BASINP    GEOM    SYMINP    ZMAT    AOBASIS   BASIS     P2S    ABASIS      S 
                                         1400     1410     1200     1210     1080     1600     1650     1700   
                                           T        V       H0       H01     AOSYM     SMH    MOLCAS    OPER   

              2       3        0.94       700     1000     2100   
                                         GEOM     BASIS     RHF  

 PROGRAMS   *        TOTAL        HF       INT
 CPU TIMES  *         5.61      2.52      3.02
 REAL TIME  *         6.12 SEC
 DISK USED  *       821.11 MB      
 SF USED    *         0.11 MB      
 GA USED    *         0.00 MB       (max)       0.00 MB       (current)
 **********************************************************************************************************************************


1PROGRAM * CCSD (Closed-shell coupled cluster)     Authors: C. Hampel, H.-J. Werner, 1991, M. Deegan, P.J. Knowles, 1992

                                  CCSD-F12 implementation by  H.-J. Werner, 2007

                   Density fitting integral evaluation by F.R. Manby, 2003,2007, G. Knizia, 2010

 Basis set CC-PVTZ/JKFIT generated.      Number of basis functions:   376 
 Basis set AUG-CC-PVTZ/MP2FIT generated. Number of basis functions:   516 

 Convergence thresholds:  THRVAR = 1.00D-08  THRDEN = 1.00D-06

 CCSD(T)     terms to be evaluated (factor= 1.000)


 Number of core orbitals:           4 (   4   0 )
 Number of closed-shell orbitals:  12 (   9   3 )
 Number of external orbitals:     214 ( 130  84 )

 Molecular orbitals read from record     2100.2  Type=RHF/CANONICAL (state 1.1)

 MP2-F12 correlation treatment (H.-J. Werner, 2006)
 --------------------------------------------------

 Using MP2-F12 with ansatz 3C(FIX)

 Using projected zeroth-order Hamiltonian (+Z)

 FOCKRIB=T FOCKRIC=T FOCKRIP=T CABSP=T CABSA=T CABSK=T CABSF=T GBC=F EBC=F DMAT=T NOFIK=T NOPAO=1 SOLVE=-1  USEPAO=0
 EXCH_A= T EXCH_B= F EXCH_C= F EXCH_P= F
 
 Geminal basis:    OPTFULL  GEM_TYPE=SLATER  BETA=1.0  NGEM=6

 Optimizing Gaussian exponents for each gem_beta

 Geminal optimization for beta= 1.0000
 Weight function:   m=0, omega= 1.4646

 Augmented Hessian optimization of geminal fit. Trust ratio= 0.40000
 Convergence reached after   2 iterations. Final gradient= 8.24D-16, Step= 4.32D-06, Delta= 1.28D-09
 
 Alpha:                 0.19532     0.81920     2.85917     9.50073    35.69989   197.79328
 Coeff:                 0.27070     0.30552     0.18297     0.10986     0.06810     0.04224
 

 Symmetry turned off. Reference energy:       -263.769390101533

 All pairs explicitly correlated. Number of r12-pairs:           78
 
 AO(A)-basis ORBITAL           loaded. Number of functions:     230
 RI(R)-basis CC-PVTZ/JKFIT     loaded. Number of functions:     376
 DF-basis CC-PVTZ/JKFIT        loaded. Number of functions:     376

 Screening thresholds:   THRAO=  1.00D-10  THRMO=  1.00D-09  THRPROD=  1.00D-09
                         THRSW=  1.00D-05  THROV=  1.00D-12  THRF12=   1.00D-08

 CPU time for Fock operators                      0.85 sec
 
 Construction of ABS:
 Smallest eigenvalue of S          2.57E-04  (threshold= 1.00E-08)
 Ratio eigmin/eigmax               1.83E-06  (threshold= 1.00E-09)
 Smallest eigenvalue of S kept     2.57E-04  (threshold= 2.57E-04, 0 functions deleted, 376 kept)
 
 Construction of CABS:
 Smallest eigenvalue of S          2.30E-08  (threshold= 1.00E-08)
 Ratio eigmin/eigmax               2.30E-08  (threshold= 1.00E-09)
 Smallest eigenvalue of S kept     2.30E-08  (threshold= 2.30E-08, 0 functions deleted, 376 kept)
 
 CPU time for CABS singles                        0.16 sec

 CABS-singles contribution of  -0.01592227 patched into reference energy.
 New reference energy        -263.78531237
 
 AO(A)-basis ORBITAL           loaded. Number of functions:     230
 RI(R)-basis CC-PVTZ/JKFIT     loaded. Number of functions:     376
 DF-basis AUG-CC-PVTZ/MP2FIT   loaded. Number of functions:     516

 Screening thresholds:   THRAO=  1.00D-10  THRMO=  1.00D-09  THRPROD=  1.00D-09
                         THRSW=  1.00D-05  THROV=  1.00D-12  THRF12=   1.00D-08

 CPU time for 3-index integral evaluation         1.43 sec
 CPU time for first  half transformation          0.14 sec ( 7964.2 MFLOP/sec)
 CPU time for second half transformation          0.01 sec ( 6000.3 MFLOP/sec)
 CPU time for sorting                             0.06 sec
 CPU time for fitting                             0.06 sec (23217.5 MFLOP/sec)
 CPU time for tilde quantities                    0.10 sec (18488.8 MFLOP/sec)
 CPU time for assembly                            0.78 sec (30284.0 MFLOP/sec)
 CPU time for tranop_f12                          0.85 sec (35560.1 MFLOP/sec)
 CPU time for f12 integrals (total)               5.47 sec
 F12-matrices built in  3 passes.
 F12-matrices built in  3 passes.
 F12-matrices built in  3 passes.
 F12-matrices built in  3 passes.
 FC-matrix built in  3 passes.
 CPU time for f12 matrices (total)                0.50 sec

 Diagonal F12 approximation with fixed coefficients:  TSING= 0.500,  TTRIP= 0.250 (scaled by -1/beta)

 DF-MP2-F12 energy corrections:
 ------------------------------
 Approx.                                    Singlet             Triplet             Total
 DF-MP2-F12/3*C(DX,FIX)                -0.097445599140     -0.016932794130     -0.114378393270
 DF-MP2-F12/3*C(FIX)                   -0.079860788188     -0.013395142480     -0.093255930668
 DF-MP2-F12/3C(FIX)                    -0.080222266451     -0.013418596632     -0.093640863083

 DF-MP2-F12 correlation energies:
 --------------------------------
 Approx.                                    Singlet             Triplet             Ecorr            Total Energy
 DF-MP2                                -0.537789989350     -0.343111077777     -0.880901067127   -264.666213436202
 DF-MP2-F12/3*C(DX,FIX)                -0.635235588490     -0.360043871907     -0.995279460397   -264.780591829472
 DF-MP2-F12/3*C(FIX)                   -0.617650777538     -0.356506220256     -0.974156997795   -264.759469366870
 DF-MP2-F12/3C(FIX)                    -0.618012255801     -0.356529674409     -0.974541930210   -264.759854299286

 SCS-DF-MP2 energies (F_SING= 1.20000  F_TRIP= 0.62222  F_PARALLEL= 0.33333):
 ----------------------------------------------------------------------------
 SCS-DF-MP2                            -0.858839324503   -264.644151693579
 SCS-DF-MP2-F12/3*C(DX,FIX)            -0.986310004263   -264.771622373339
 SCS-DF-MP2-F12/3*C(FIX)               -0.963007025650   -264.748319394726
 SCS-DF-MP2-F12/3C(FIX)                -0.963455393260   -264.748767762336

 Symmetry restored.
 Symmetry transformation completed.

 Number of N-1 electron functions:              12
 Number of N-2 electron functions:              78
 Number of singly external CSFs:              1422
 Number of doubly external CSFs:           1668984
 Total number of CSFs:                     1670407

 Pair and operator lists are different

 Length of J-op  integral file:             466.33 MB
 Length of K-op  integral file:             525.76 MB
 Length of 3-ext integral record:             0.00 MB

 Memory could be reduced to 76.19 Mwords without degradation in triples

 Integral transformation finished. Total CPU:   3.44 sec, npass=  1  Memory used:  26.50 MW

 Reference energy:                   -263.78531237

 Adding F12 terms to K(Cij), methodcc=6,  factor=1.0

 ITER.      SQ.NORM     CORR.ENERGY   TOTAL ENERGY   ENERGY CHANGE        DEN1      VAR(S)    VAR(P)  DIIS     TIME
   1      1.20220602    -0.86283893  -264.64815129     0.01807856     0.04672813  0.72D-02  0.56D-02  1  1    12.96
   2      1.21652814    -0.85860931  -264.64392168     0.00422961    -0.02016356  0.86D-04  0.59D-03  2  2    15.19
   3      1.22189411    -0.85870563  -264.64401800    -0.00009632    -0.00236639  0.13D-03  0.32D-04  3  3    17.42
   4      1.22469847    -0.85857766  -264.64389003     0.00012798    -0.00141238  0.76D-05  0.41D-05  4  4    19.64
   5      1.22572932    -0.85853996  -264.64385233     0.00003769    -0.00036668  0.56D-06  0.29D-06  5  5    21.88
   6      1.22589157    -0.85851310  -264.64382547     0.00002686    -0.00000806  0.40D-07  0.24D-07  6  6    24.11
   7      1.22592096    -0.85851067  -264.64382304     0.00000243    -0.00000622  0.26D-08  0.40D-08  6  4    26.42
   8      1.22592127    -0.85851018  -264.64382255     0.00000049     0.00000194  0.39D-09  0.27D-09  6  1    28.73
   9      1.22592188    -0.85851025  -264.64382261    -0.00000007     0.00000056  0.26D-10  0.21D-10  6  2    31.12

 Norm of t1 vector:      0.10599820      S-energy:     0.00000001      T1 diagnostic:  0.01529952
                                                                       D1 diagnostic:  0.04494960

 Adding energy correction from Wij-K(Fij), methodcc=6  factor=1.0
 
  CCSD correlation energy              -0.858510245262
  MP2-F12 correction (uncoupled)       -0.092482566209
  C*T doubles correction               -0.001476394575
  f12b correction                       0.015406947863


 Total CPU time for triples:     68.07 sec


 RESULTS
 =======

  Reference energy                   -263.769390101532
  F12 singles correction               -0.015922267543

 F12 singles corrections added to reference energy

  New reference energy               -263.785312369075

  F12a singlet correction              -0.080421931691
  F12a triplet correction              -0.013537029093
  F12a total correction                -0.093958960785

 F12a corrections for ansatz F12/3C(FIX) added to CCSD energy
 
  CCSD-F12a singlet pair energy        -0.641955039467
  CCSD-F12a triplet pair energy        -0.310514179576
  CCSD-F12a correlation energy         -0.952469206046

  Triples (T) contribution             -0.037651105266
  Total correlation energy             -0.990120311313

  CCSD-F12a total energy             -264.737781575122
  CCSD[T]-F12a energy                -264.777978115008
  CCSD-T-F12a energy                 -264.774494326318
 !CCSD(T)-F12a total energy          -264.775432680388

 F12b corrections for ansatz F12/3C(FIX) added to CCSD(T)-F12a energy

  CCSD-F12b singlet pair energy        -0.627771305905
  CCSD-F12b triplet pair energy        -0.309290965274
  CCSD-F12b correlation energy         -0.937062258183

  Triples (T) contribution             -0.037651105266
  Total correlation energy             -0.974713363450

  CCSD-F12b total energy             -264.722374627259
  CCSD[T]-F12b energy                -264.762571167145
  CCSD-T-F12b energy                 -264.759087378454
 !CCSD(T)-F12b total energy          -264.760025732525

 Timing summary (sec):

 STEP                 CPU(USER)    SYS     CPU(TOT)    WALL
 Transformation          3.47      0.46      3.93      3.93
 CCSD iterations        20.25      1.25     21.50     21.50
 Triples                68.07      1.49     69.56     69.52
 MP2-F12                 7.41      1.04      8.45      8.44
 F12b energy             1.44      0.02      1.46      3.33

 Program statistics:

 Available memory in ccsd:                99998934
 Min. memory needed in ccsd:               4419579
 Max. memory used in ccsd:                 5922321
 Max. memory used in cckext:               6231049 (10 integral passes)



 **********************************************************************************************************************************
 DATASETS  * FILE   NREC   LENGTH (MB)   RECORD NAMES
              1      20      268.24       500      610      700      900      950      970     1000      129      960     1100   
                                          VAR    BASINP    GEOM    SYMINP    ZMAT    AOBASIS   BASIS     P2S    ABASIS      S 
                                         1400     1410     1200     1210     1080     1600     1650     1700      960(1)  1380   
                                           T        V       H0       H01     AOSYM     SMH    MOLCAS    OPER    ABASIS    JKOP   

              2       5        1.51       700     1000     2100     7360     7350   
                                         GEOM     BASIS     RHF    F12ABS    EF12   

 PROGRAMS   *        TOTAL   CCSD(T)        HF       INT
 CPU TIMES  *       106.28    100.67      2.52      3.02
 REAL TIME  *       113.10 SEC
 DISK USED  *         1.26 GB      
 SF USED    *         1.52 GB      
 GA USED    *         2.40 MB       (max)       0.00 MB       (current)
 **********************************************************************************************************************************

     CCSD(T)-F12        HF-SCF  
   -264.76002573   -263.76939010
 **********************************************************************************************************************************
 Variable memory released
