
 Primary working directories    : /scratch/kee
 Secondary working directories  : /scratch/kee
 Wavefunction directory         : /home/kee/wfu/
 Main file repository           : /scratch/kee/

 ARCHNAME  : Linux/x86_64
 FC        : /opt/intel/composer_xe_2015.0.090/bin/intel64/ifort
 FCVERSION : 15.0.0
 BLASLIB   : -L/opt/intel/mkl/lib/intel64 -lmkl_intel_ilp64 -lmkl_sequential -lmkl_core
 id        : emory

 Nodes     nprocs
 node25       3
 Number of processes for MPI-2 version of Molpro:   nprocs(total)=    4   nprocs(compute)=    3   nprocs(helper)=    1
 ga_uses_ma=false, calling ma_init with nominal heap.
 GA-space will be limited to   8.0 MW (determined by -G option)

 Using customized tuning parameters: mindgm=7; mindgv=32; mindgc=1; mindgr=1; noblas=0; mincuda=1000; minvec=7
 default implementation of scratch files=sf  

 ***,co2h2o
 memory,100,m
 basis avtz
 geomtype = xyz
 geometry = {
 6
       0.00000000
 O     0.00351000    1.16210700    0.00000000
 O     0.00351000   -1.16210700    0.00000000
 O     6.06968000    0.00000000    0.00000000
 H     6.65589800    0.00000000    0.75853100
 H     6.65589800    0.00000000   -0.75853100
 C     0.01968000    0.00000000    0.00000000
 }
 hf
 ccsd(t)-f12
 ---

 Variables initialized (665), CPU time= 0.00 sec
 Commands  initialized (462), CPU time= 0.01 sec, 486 directives.
 Default parameters read. Elapsed time= 0.04 sec

 Checking input...
 Passed
1


                                         ***  PROGRAM SYSTEM MOLPRO  ***
                         Copyright, University College Cardiff Consultants Limited, 2008

                                    Version 2010.1 linked 9 Dec 2014 15:06:28 


 **********************************************************************************************************************************
 LABEL *   co2h2o                                                                        
 Linux-2.6.32-504.el6.x86_64/node25(x86_64) 64 bit mpp version                           DATE: 12-Dec-16          TIME: 14:15:36  
 **********************************************************************************************************************************

 Patch level:      19
 **********************************************************************************************************************************

 Variable memory set to  100000000 words,  buffer space   230000 words

 SETTING BASIS          =    AVTZ
 SETTING GEOMTYPE       =    XYZ

Geometry recognized as XYZ



 Recomputing integrals since basis changed


 Using spherical harmonics

 Library entry O      S aug-cc-pVTZ          selected for orbital group  1
 Library entry O      P aug-cc-pVTZ          selected for orbital group  1
 Library entry O      D aug-cc-pVTZ          selected for orbital group  1
 Library entry O      F aug-cc-pVTZ          selected for orbital group  1
 Library entry H      S aug-cc-pVTZ          selected for orbital group  2
 Library entry H      P aug-cc-pVTZ          selected for orbital group  2
 Library entry H      D aug-cc-pVTZ          selected for orbital group  2
 Library entry C      S aug-cc-pVTZ          selected for orbital group  3
 Library entry C      P aug-cc-pVTZ          selected for orbital group  3
 Library entry C      D aug-cc-pVTZ          selected for orbital group  3
 Library entry C      F aug-cc-pVTZ          selected for orbital group  3

1PROGRAM * SEWARD (Integral evaluation for generally contracted gaussian basis sets)     Author: Roland Lindh, 1990

 Geometry written to block  1 of record 700


 Point group  C2v 



 ATOMIC COORDINATES

 NR  ATOM    CHARGE       X              Y              Z

   1  O       8.00    0.006632939    2.196063965    0.000000000
   2  O       8.00    0.006632939   -2.196063965    0.000000000
   3  O       8.00   11.470032905    0.000000000    0.000000000
   4  H       1.00   12.577824379    0.000000000    1.433415852
   5  H       1.00   12.577824379    0.000000000   -1.433415852
   6  C       6.00    0.037189810    0.000000000    0.000000000

 Bond lengths in Bohr (Angstrom)

 1-6  2.196276545  2-6  2.196276545  3-4  1.811596797  3-5  1.811596797
     (1.162219492)     (1.162219492)     (0.958655737)     (0.958655737)

 Bond angles

  1-6-2  178.40563223   4-3-5  104.60391356

 NUCLEAR CHARGE:                   32
 NUMBER OF PRIMITIVE AOS:         322
 NUMBER OF SYMMETRY AOS:          282
 NUMBER OF CONTRACTIONS:          230   (  84A1  +  59B1  +  54B2  +  33A2  )
 NUMBER OF CORE ORBITALS:           4   (   3A1  +   1B1  +   0B2  +   0A2  )
 NUMBER OF VALENCE ORBITALS:       18   (   8A1  +   5B1  +   4B2  +   1A2  )


 NUCLEAR REPULSION ENERGY   86.07021100


 Eigenvalues of metric

         1 0.369E-03 0.393E-03 0.898E-03 0.171E-02 0.317E-02 0.320E-02 0.401E-02 0.459E-02
         2 0.349E-03 0.922E-03 0.175E-02 0.344E-02 0.584E-02 0.743E-02 0.197E-01 0.211E-01
         3 0.393E-03 0.166E-02 0.318E-02 0.506E-02 0.622E-02 0.100E-01 0.135E-01 0.156E-01
         4 0.348E-02 0.124E-01 0.296E-01 0.363E-01 0.561E-01 0.679E-01 0.110E+00 0.139E+00


 Contracted 2-electron integrals neglected if value below      1.0D-11
 AO integral compression algorithm  1   Integral accuracy      1.0D-11

     213.123 MB (compressed) written to integral file ( 25.0%)

     Node minimum: 63.177 MB, node maximum: 78.119 MB


 NUMBER OF SORTED TWO-ELECTRON INTEGRALS:   29979201.     BUFFER LENGTH:  32768
 NUMBER OF SEGMENTS:   2  SEGMENT LENGTH:   15996954      RECORD LENGTH: 524288

 Memory used in sort:      16.55 MW

 SORT1 READ   106464740. AND WROTE    14192316. INTEGRALS IN     41 RECORDS. CPU TIME:     1.88 SEC, REAL TIME:     2.09 SEC
 SORT2 READ    42624691. AND WROTE    89930217. INTEGRALS IN    822 RECORDS. CPU TIME:     0.48 SEC, REAL TIME:     0.63 SEC

 Node minimum:    29974277.  Node maximum:    29979201. integrals

 OPERATOR DM      FOR CENTER  0  COORDINATES:    0.000000    0.000000    0.000000


 **********************************************************************************************************************************
 DATASETS  * FILE   NREC   LENGTH (MB)   RECORD NAMES
              1      18        3.23       500      610      700      900      950      970     1000      129      960     1100   
                                          VAR    BASINP    GEOM    SYMINP    ZMAT    AOBASIS   BASIS     P2S    ABASIS      S 
                                         1400     1410     1200     1210     1080     1600     1650     1700   
                                           T        V       H0       H01     AOSYM     SMH    MOLCAS    OPER   

 PROGRAMS   *        TOTAL       INT
 CPU TIMES  *         4.08      4.00
 REAL TIME  *         4.58 SEC
 DISK USED  *       715.56 MB      
 GA USED    *         0.00 MB       (max)       0.00 MB       (current)
 **********************************************************************************************************************************

1PROGRAM * RHF-SCF (CLOSED SHELL)       Authors: W. Meyer, H.-J. Werner


 NUMBER OF ELECTRONS:      16+   16-
 CONVERGENCE THRESHOLDS:    1.00E-05 (Density)    1.00E-07 (Energy)
 MAX. NUMBER OF ITERATIONS:       60
 INTERPOLATION TYPE:            DIIS
 INTERPOLATION STEPS:              2 (START)      1 (STEP)
 LEVEL SHIFTS:                  0.00 (CLOSED)  0.00 (OPEN) 



 Orbital guess generated from atomic densities. Full valence occupancy:   11   6   4   1

 Molecular orbital dump at record        2100.2

 Initial alpha occupancy:   8   5   2   1
 Initial beta  occupancy:   8   5   2   1
 Wave function symmetry:    1

 ITERATION    DDIFF          GRAD             ENERGY        2-EL.EN.            DIPOLE MOMENTS         DIIS
    1      0.000D+00      0.000D+00      -263.66076579    367.858447    1.18064    0.00000    0.00000    0
    2      0.000D+00      0.888D-02      -263.72598199    363.228187    0.69918    0.00000    0.00000    1
    3      0.143D-01      0.602D-02      -263.76913197    365.797110    0.81770    0.00000    0.00000    2
    4      0.587D-02      0.568D-03      -263.76962706    365.586485    0.82107    0.00000    0.00000    3
    5      0.695D-03      0.165D-03      -263.76968512    365.587686    0.81576    0.00000    0.00000    4
    6      0.258D-03      0.667D-04      -263.76969231    365.602373    0.81648    0.00000    0.00000    5
    7      0.857D-04      0.163D-04      -263.76969305    365.593968    0.81604    0.00000    0.00000    6
    8      0.281D-04      0.359D-05      -263.76969309    365.595275    0.81605    0.00000    0.00000    7
    9      0.768D-05      0.121D-05      -263.76969310    365.595077    0.81602    0.00000    0.00000    0

 Final occupancy:   8   5   2   1

 !RHF STATE 1.1 Energy               -263.769693095993
 Nuclear energy                        86.07021100
 One-electron energy                 -532.63744275
 Two-electron energy                  182.79753866
 Virial quotient                       -1.00182940
 !RHF STATE 1.1 Dipole moment           0.81601594     0.00000000     0.00000000
 Dipole moment /Debye                   2.07396978     0.00000000     0.00000000

 Orbital energies:

         1.1          2.1          3.1          4.1          5.1          6.1          7.1          8.1          9.1         10.1
    -20.647849   -20.568762   -11.456738    -1.525507    -1.354175    -0.795848    -0.709495    -0.586003     0.028079     0.054245

         1.2          2.2          3.2          4.2          5.2          6.2          7.2
    -20.647895    -1.472438    -0.738107    -0.539222    -0.511608     0.082996     0.147947

         1.3          2.3          3.3          4.3
     -0.718616    -0.709622     0.046496     0.079182

         1.4          2.4          3.4
     -0.539297     0.167964     0.264341


 **********************************************************************************************************************************
 DATASETS  * FILE   NREC   LENGTH (MB)   RECORD NAMES
              1      18        3.25       500      610      700      900      950      970     1000      129      960     1100   
                                          VAR    BASINP    GEOM    SYMINP    ZMAT    AOBASIS   BASIS     P2S    ABASIS      S 
                                         1400     1410     1200     1210     1080     1600     1650     1700   
                                           T        V       H0       H01     AOSYM     SMH    MOLCAS    OPER   

              2       3        0.67       700     1000     2100   
                                         GEOM     BASIS     RHF  

 PROGRAMS   *        TOTAL        HF       INT
 CPU TIMES  *         5.27      1.20      4.00
 REAL TIME  *         5.85 SEC
 DISK USED  *       732.95 MB      
 SF USED    *         0.06 MB      
 GA USED    *         0.00 MB       (max)       0.00 MB       (current)
 **********************************************************************************************************************************


1PROGRAM * CCSD (Closed-shell coupled cluster)     Authors: C. Hampel, H.-J. Werner, 1991, M. Deegan, P.J. Knowles, 1992

                                  CCSD-F12 implementation by  H.-J. Werner, 2007

                   Density fitting integral evaluation by F.R. Manby, 2003,2007, G. Knizia, 2010

 Basis set CC-PVTZ/JKFIT generated.      Number of basis functions:   376 
 Basis set AUG-CC-PVTZ/MP2FIT generated. Number of basis functions:   516 

 Convergence thresholds:  THRVAR = 1.00D-08  THRDEN = 1.00D-06

 CCSD(T)     terms to be evaluated (factor= 1.000)


 Number of core orbitals:           4 (   3   1   0   0 )
 Number of closed-shell orbitals:  12 (   5   4   2   1 )
 Number of external orbitals:     214 (  76  54  52  32 )

 Molecular orbitals read from record     2100.2  Type=RHF/CANONICAL (state 1.1)

 MP2-F12 correlation treatment (H.-J. Werner, 2006)
 --------------------------------------------------

 Using MP2-F12 with ansatz 3C(FIX)

 Using projected zeroth-order Hamiltonian (+Z)

 FOCKRIB=T FOCKRIC=T FOCKRIP=T CABSP=T CABSA=T CABSK=T CABSF=T GBC=F EBC=F DMAT=T NOFIK=T NOPAO=1 SOLVE=-1  USEPAO=0
 EXCH_A= T EXCH_B= F EXCH_C= F EXCH_P= F
 
 Geminal basis:    OPTFULL  GEM_TYPE=SLATER  BETA=1.0  NGEM=6

 Optimizing Gaussian exponents for each gem_beta

 Geminal optimization for beta= 1.0000
 Weight function:   m=0, omega= 1.4646

 Augmented Hessian optimization of geminal fit. Trust ratio= 0.40000
 Convergence reached after   2 iterations. Final gradient= 8.24D-16, Step= 4.32D-06, Delta= 1.28D-09
 
 Alpha:                 0.19532     0.81920     2.85917     9.50073    35.69989   197.79328
 Coeff:                 0.27070     0.30552     0.18297     0.10986     0.06810     0.04224
 

 Symmetry turned off. Reference energy:       -263.769693095993

 All pairs explicitly correlated. Number of r12-pairs:           78
 
 AO(A)-basis ORBITAL           loaded. Number of functions:     230
 RI(R)-basis CC-PVTZ/JKFIT     loaded. Number of functions:     376
 DF-basis CC-PVTZ/JKFIT        loaded. Number of functions:     376

 Screening thresholds:   THRAO=  1.00D-10  THRMO=  1.00D-09  THRPROD=  1.00D-09
                         THRSW=  1.00D-05  THROV=  1.00D-12  THRF12=   1.00D-08

 CPU time for Fock operators                      0.92 sec
 
 Construction of ABS:
 Smallest eigenvalue of S          2.57E-04  (threshold= 1.00E-08)
 Ratio eigmin/eigmax               1.83E-06  (threshold= 1.00E-09)
 Smallest eigenvalue of S kept     2.57E-04  (threshold= 2.57E-04, 0 functions deleted, 376 kept)
 
 Construction of CABS:
 Smallest eigenvalue of S          2.30E-08  (threshold= 1.00E-08)
 Ratio eigmin/eigmax               2.30E-08  (threshold= 1.00E-09)
 Smallest eigenvalue of S kept     2.30E-08  (threshold= 2.30E-08, 0 functions deleted, 376 kept)
 
 CPU time for CABS singles                        0.16 sec

 CABS-singles contribution of  -0.01592210 patched into reference energy.
 New reference energy        -263.78561520
 
 AO(A)-basis ORBITAL           loaded. Number of functions:     230
 RI(R)-basis CC-PVTZ/JKFIT     loaded. Number of functions:     376
 DF-basis AUG-CC-PVTZ/MP2FIT   loaded. Number of functions:     516

 Screening thresholds:   THRAO=  1.00D-10  THRMO=  1.00D-09  THRPROD=  1.00D-09
                         THRSW=  1.00D-05  THROV=  1.00D-12  THRF12=   1.00D-08

 CPU time for 3-index integral evaluation         1.98 sec
 CPU time for first  half transformation          0.15 sec (18214.7 MFLOP/sec)
 CPU time for second half transformation          0.02 sec ( 4729.5 MFLOP/sec)
 CPU time for sorting                             0.13 sec
 CPU time for fitting                             0.04 sec (34826.3 MFLOP/sec)
 CPU time for tilde quantities                    0.05 sec (36977.6 MFLOP/sec)
 CPU time for assembly                            0.67 sec (35260.7 MFLOP/sec)
 CPU time for tranop_f12                          0.89 sec (32447.7 MFLOP/sec)
 CPU time for f12 integrals (total)               5.96 sec
 F12-matrices built in  3 passes.
 F12-matrices built in  3 passes.
 F12-matrices built in  3 passes.
 F12-matrices built in  3 passes.
 FC-matrix built in  3 passes.
 CPU time for f12 matrices (total)                0.50 sec

 Diagonal F12 approximation with fixed coefficients:  TSING= 0.500,  TTRIP= 0.250 (scaled by -1/beta)

 DF-MP2-F12 energy corrections:
 ------------------------------
 Approx.                                    Singlet             Triplet             Total
 DF-MP2-F12/3*C(DX,FIX)                -0.097446059865     -0.016932946292     -0.114379006158
 DF-MP2-F12/3*C(FIX)                   -0.079862251372     -0.013395041302     -0.093257292674
 DF-MP2-F12/3C(FIX)                    -0.080223176967     -0.013418381539     -0.093641558505

 DF-MP2-F12 correlation energies:
 --------------------------------
 Approx.                                    Singlet             Triplet             Ecorr            Total Energy
 DF-MP2                                -0.537727650144     -0.343079515088     -0.880807165232   -264.666422363502
 DF-MP2-F12/3*C(DX,FIX)                -0.635173710010     -0.360012461380     -0.995186171390   -264.780801369660
 DF-MP2-F12/3*C(FIX)                   -0.617589901516     -0.356474556390     -0.974064457906   -264.759679656177
 DF-MP2-F12/3C(FIX)                    -0.617950827111     -0.356497896626     -0.974448723737   -264.760063922008

 SCS-DF-MP2 energies (F_SING= 1.20000  F_TRIP= 0.62222  F_PARALLEL= 0.33333):
 ----------------------------------------------------------------------------
 SCS-DF-MP2                            -0.858744878450   -264.644360076720
 SCS-DF-MP2-F12/3*C(DX,FIX)            -0.986216205759   -264.771831404030
 SCS-DF-MP2-F12/3*C(FIX)               -0.962914272462   -264.748529470732
 SCS-DF-MP2-F12/3C(FIX)                -0.963361905989   -264.748977104260

 Symmetry restored.
 Symmetry transformation completed.

 Number of N-1 electron functions:              12
 Number of N-2 electron functions:              78
 Number of singly external CSFs:               732
 Number of doubly external CSFs:            836016
 Total number of CSFs:                      836749

 Pair and operator lists are different

 Length of J-op  integral file:             462.26 MB
 Length of K-op  integral file:             502.03 MB
 Length of 3-ext integral record:             0.00 MB

 Memory could be reduced to 38.69 Mwords without degradation in triples

 Integral transformation finished. Total CPU:   1.40 sec, npass=  1  Memory used:   6.07 MW

 Reference energy:                   -263.78561520

 Adding F12 terms to K(Cij), methodcc=6,  factor=1.0

 ITER.      SQ.NORM     CORR.ENERGY   TOTAL ENERGY   ENERGY CHANGE        DEN1      VAR(S)    VAR(P)  DIIS     TIME
   1      1.20214443    -0.86276110  -264.64837630     0.01806244     0.04669047  0.72D-02  0.56D-02  1  1    10.14
   2      1.21645598    -0.85853642  -264.64415162     0.00422468    -0.02015047  0.86D-04  0.59D-03  2  2    11.01
   3      1.22181772    -0.85863316  -264.64424836    -0.00009674    -0.00236462  0.13D-03  0.32D-04  3  3    11.93
   4      1.22462033    -0.85850537  -264.64412057     0.00012779    -0.00141157  0.76D-05  0.41D-05  4  4    12.83
   5      1.22565053    -0.85846770  -264.64408290     0.00003767    -0.00036639  0.56D-06  0.29D-06  5  5    13.74
   6      1.22581273    -0.85844084  -264.64405603     0.00002687    -0.00000805  0.40D-07  0.24D-07  6  6    14.63
   7      1.22584209    -0.85843841  -264.64405361     0.00000242    -0.00000622  0.25D-08  0.40D-08  6  4    15.51
   8      1.22584239    -0.85843792  -264.64405312     0.00000049     0.00000194  0.39D-09  0.27D-09  6  1    16.40
   9      1.22584300    -0.85843799  -264.64405319    -0.00000007     0.00000056  0.25D-10  0.21D-10  6  2    17.31

 Norm of t1 vector:      0.10597239      S-energy:    -0.00000003      T1 diagnostic:  0.01529580
                                                                       D1 diagnostic:  0.04496832

 Adding energy correction from Wij-K(Fij), methodcc=6  factor=1.0
 
  CCSD correlation energy              -0.858437990248
  MP2-F12 correction (uncoupled)       -0.092485201593
  C*T doubles correction               -0.001475274603
  f12b correction                       0.015406535392


 Total CPU time for triples:     26.34 sec


 RESULTS
 =======

  Reference energy                   -263.769693095993
  F12 singles correction               -0.015922102277

 F12 singles corrections added to reference energy

  New reference energy               -263.785615198270

  F12a singlet correction              -0.080423456711
  F12a triplet correction              -0.013537019485
  F12a total correction                -0.093960476197

 F12a corrections for ansatz F12/3C(FIX) added to CCSD energy
 
  CCSD-F12a singlet pair energy        -0.641888537782
  CCSD-F12a triplet pair energy        -0.310509901329
  CCSD-F12a correlation energy         -0.952398466445

  Triples (T) contribution             -0.037640359235
  Total correlation energy             -0.990038825680

  CCSD-F12a total energy             -264.738013664715
  CCSD[T]-F12a energy                -264.778197186876
  CCSD-T-F12a energy                 -264.774716735717
 !CCSD(T)-F12a total energy          -264.775654023950

 F12b corrections for ansatz F12/3C(FIX) added to CCSD(T)-F12a energy

  CCSD-F12b singlet pair energy        -0.627705304614
  CCSD-F12b triplet pair energy        -0.309286599104
  CCSD-F12b correlation energy         -0.936991931052

  Triples (T) contribution             -0.037640359235
  Total correlation energy             -0.974632290288

  CCSD-F12b total energy             -264.722607129323
  CCSD[T]-F12b energy                -264.762790651484
  CCSD-T-F12b energy                 -264.759310200325
 !CCSD(T)-F12b total energy          -264.760247488558

 Timing summary (sec):

 STEP                 CPU(USER)    SYS     CPU(TOT)    WALL
 Transformation          1.40      0.21      1.61      1.61
 CCSD iterations         8.00      0.65      8.65      8.65
 Triples                26.34      0.74     27.08     27.07
 MP2-F12                 7.92      1.13      9.05      9.05
 F12b energy             0.55      0.02      0.57      0.56

 Program statistics:

 Available memory in ccsd:                99998934
 Min. memory needed in ccsd:               2244783
 Max. memory used in ccsd:                 3005571
 Max. memory used in cckext:               2769663 (10 integral passes)



 **********************************************************************************************************************************
 DATASETS  * FILE   NREC   LENGTH (MB)   RECORD NAMES
              1      20      137.19       500      610      700      900      950      970     1000      129      960     1100   
                                          VAR    BASINP    GEOM    SYMINP    ZMAT    AOBASIS   BASIS     P2S    ABASIS      S 
                                         1400     1410     1200     1210     1080     1600     1650     1700      960(1)  1380   
                                           T        V       H0       H01     AOSYM     SMH    MOLCAS    OPER    ABASIS    JKOP   

              2       5        0.97       700     1000     2100     7360     7350   
                                         GEOM     BASIS     RHF    F12ABS    EF12   

 PROGRAMS   *        TOTAL   CCSD(T)        HF       INT
 CPU TIMES  *        49.50     44.23      1.20      4.00
 REAL TIME  *        53.10 SEC
 DISK USED  *       954.62 MB      
 SF USED    *         1.33 GB      
 GA USED    *         2.40 MB       (max)       0.00 MB       (current)
 **********************************************************************************************************************************

     CCSD(T)-F12        HF-SCF  
   -264.76024749   -263.76969310
 **********************************************************************************************************************************
 Variable memory released
