
 Primary working directories    : /scratch/kee
 Secondary working directories  : /scratch/kee
 Wavefunction directory         : /home/kee/wfu/
 Main file repository           : /scratch/kee/

 ARCHNAME  : Linux/x86_64
 FC        : /opt/intel/composer_xe_2015.0.090/bin/intel64/ifort
 FCVERSION : 15.0.0
 BLASLIB   : -L/opt/intel/mkl/lib/intel64 -lmkl_intel_ilp64 -lmkl_sequential -lmkl_core
 id        : emory

 Nodes     nprocs
 node25       3
 Number of processes for MPI-2 version of Molpro:   nprocs(total)=    4   nprocs(compute)=    3   nprocs(helper)=    1
 ga_uses_ma=false, calling ma_init with nominal heap.
 GA-space will be limited to   8.0 MW (determined by -G option)

 Using customized tuning parameters: mindgm=7; mindgv=32; mindgc=1; mindgr=1; noblas=0; mincuda=1000; minvec=7
 default implementation of scratch files=sf  

 ***,co2h2o
 memory,100,m
 basis avtz
 geomtype = xyz
 geometry = {
 6
       0.00000000
 O     0.00351000    1.16210700    0.00000000
 O     0.00351000   -1.16210700    0.00000000
 O     6.11968000    0.00000000    0.00000000
 H     6.70589800    0.00000000    0.75853100
 H     6.70589800    0.00000000   -0.75853100
 C     0.01968000    0.00000000    0.00000000
 }
 hf
 ccsd(t)-f12
 ---

 Variables initialized (665), CPU time= 0.01 sec
 Commands  initialized (462), CPU time= 0.00 sec, 486 directives.
 Default parameters read. Elapsed time= 0.04 sec

 Checking input...
 Passed
1


                                         ***  PROGRAM SYSTEM MOLPRO  ***
                         Copyright, University College Cardiff Consultants Limited, 2008

                                    Version 2010.1 linked 9 Dec 2014 15:06:28 


 **********************************************************************************************************************************
 LABEL *   co2h2o                                                                        
 Linux-2.6.32-504.el6.x86_64/node25(x86_64) 64 bit mpp version                           DATE: 12-Dec-16          TIME: 14:16:31  
 **********************************************************************************************************************************

 Patch level:      19
 **********************************************************************************************************************************

 Variable memory set to  100000000 words,  buffer space   230000 words

 SETTING BASIS          =    AVTZ
 SETTING GEOMTYPE       =    XYZ

Geometry recognized as XYZ



 Recomputing integrals since basis changed


 Using spherical harmonics

 Library entry O      S aug-cc-pVTZ          selected for orbital group  1
 Library entry O      P aug-cc-pVTZ          selected for orbital group  1
 Library entry O      D aug-cc-pVTZ          selected for orbital group  1
 Library entry O      F aug-cc-pVTZ          selected for orbital group  1
 Library entry H      S aug-cc-pVTZ          selected for orbital group  2
 Library entry H      P aug-cc-pVTZ          selected for orbital group  2
 Library entry H      D aug-cc-pVTZ          selected for orbital group  2
 Library entry C      S aug-cc-pVTZ          selected for orbital group  3
 Library entry C      P aug-cc-pVTZ          selected for orbital group  3
 Library entry C      D aug-cc-pVTZ          selected for orbital group  3
 Library entry C      F aug-cc-pVTZ          selected for orbital group  3

1PROGRAM * SEWARD (Integral evaluation for generally contracted gaussian basis sets)     Author: Roland Lindh, 1990

 Geometry written to block  1 of record 700


 Point group  C2v 



 ATOMIC COORDINATES

 NR  ATOM    CHARGE       X              Y              Z

   1  O       8.00    0.006632939    2.196063965    0.000000000
   2  O       8.00    0.006632939   -2.196063965    0.000000000
   3  O       8.00   11.564519212    0.000000000    0.000000000
   4  H       1.00   12.672310685    0.000000000    1.433415852
   5  H       1.00   12.672310685    0.000000000   -1.433415852
   6  C       6.00    0.037189810    0.000000000    0.000000000

 Bond lengths in Bohr (Angstrom)

 1-6  2.196276545  2-6  2.196276545  3-4  1.811596797  3-5  1.811596797
     (1.162219492)     (1.162219492)     (0.958655737)     (0.958655737)

 Bond angles

  1-6-2  178.40563223   4-3-5  104.60391356

 NUCLEAR CHARGE:                   32
 NUMBER OF PRIMITIVE AOS:         322
 NUMBER OF SYMMETRY AOS:          282
 NUMBER OF CONTRACTIONS:          230   (  84A1  +  59B1  +  54B2  +  33A2  )
 NUMBER OF CORE ORBITALS:           4   (   3A1  +   1B1  +   0B2  +   0A2  )
 NUMBER OF VALENCE ORBITALS:       18   (   8A1  +   5B1  +   4B2  +   1A2  )


 NUCLEAR REPULSION ENERGY   85.92444068


 Eigenvalues of metric

         1 0.370E-03 0.392E-03 0.899E-03 0.172E-02 0.317E-02 0.320E-02 0.402E-02 0.461E-02
         2 0.349E-03 0.922E-03 0.175E-02 0.344E-02 0.585E-02 0.743E-02 0.198E-01 0.211E-01
         3 0.393E-03 0.166E-02 0.318E-02 0.506E-02 0.622E-02 0.100E-01 0.135E-01 0.156E-01
         4 0.348E-02 0.124E-01 0.296E-01 0.363E-01 0.561E-01 0.679E-01 0.110E+00 0.139E+00


 Contracted 2-electron integrals neglected if value below      1.0D-11
 AO integral compression algorithm  1   Integral accuracy      1.0D-11

     211.812 MB (compressed) written to integral file ( 24.9%)

     Node minimum: 62.652 MB, node maximum: 78.381 MB


 NUMBER OF SORTED TWO-ELECTRON INTEGRALS:   29979201.     BUFFER LENGTH:  32768
 NUMBER OF SEGMENTS:   2  SEGMENT LENGTH:   15996954      RECORD LENGTH: 524288

 Memory used in sort:      16.55 MW

 SORT1 READ   106138420. AND WROTE    14047580. INTEGRALS IN     41 RECORDS. CPU TIME:     1.88 SEC, REAL TIME:     2.07 SEC
 SORT2 READ    42184169. AND WROTE    89930217. INTEGRALS IN    717 RECORDS. CPU TIME:     0.52 SEC, REAL TIME:     0.68 SEC

 Node minimum:    29974277.  Node maximum:    29979201. integrals

 OPERATOR DM      FOR CENTER  0  COORDINATES:    0.000000    0.000000    0.000000


 **********************************************************************************************************************************
 DATASETS  * FILE   NREC   LENGTH (MB)   RECORD NAMES
              1      18        3.23       500      610      700      900      950      970     1000      129      960     1100   
                                          VAR    BASINP    GEOM    SYMINP    ZMAT    AOBASIS   BASIS     P2S    ABASIS      S 
                                         1400     1410     1200     1210     1080     1600     1650     1700   
                                           T        V       H0       H01     AOSYM     SMH    MOLCAS    OPER   

 PROGRAMS   *        TOTAL       INT
 CPU TIMES  *         4.17      4.09
 REAL TIME  *         4.65 SEC
 DISK USED  *       710.14 MB      
 GA USED    *         0.00 MB       (max)       0.00 MB       (current)
 **********************************************************************************************************************************

1PROGRAM * RHF-SCF (CLOSED SHELL)       Authors: W. Meyer, H.-J. Werner


 NUMBER OF ELECTRONS:      16+   16-
 CONVERGENCE THRESHOLDS:    1.00E-05 (Density)    1.00E-07 (Energy)
 MAX. NUMBER OF ITERATIONS:       60
 INTERPOLATION TYPE:            DIIS
 INTERPOLATION STEPS:              2 (START)      1 (STEP)
 LEVEL SHIFTS:                  0.00 (CLOSED)  0.00 (OPEN) 



 Orbital guess generated from atomic densities. Full valence occupancy:   11   6   4   1

 Molecular orbital dump at record        2100.2

 Initial alpha occupancy:   8   5   2   1
 Initial beta  occupancy:   8   5   2   1
 Wave function symmetry:    1

 ITERATION    DDIFF          GRAD             ENERGY        2-EL.EN.            DIPOLE MOMENTS         DIIS
    1      0.000D+00      0.000D+00      -263.66074728    367.562518    1.18064    0.00000    0.00000    0
    2      0.000D+00      0.888D-02      -263.72596671    362.933635    0.69868    0.00000    0.00000    1
    3      0.143D-01      0.602D-02      -263.76912437    365.502462    0.81735    0.00000    0.00000    2
    4      0.587D-02      0.568D-03      -263.76961946    365.291768    0.82073    0.00000    0.00000    3
    5      0.695D-03      0.165D-03      -263.76967752    365.293013    0.81541    0.00000    0.00000    4
    6      0.258D-03      0.667D-04      -263.76968472    365.307690    0.81613    0.00000    0.00000    5
    7      0.857D-04      0.163D-04      -263.76968545    365.299287    0.81569    0.00000    0.00000    6
    8      0.281D-04      0.359D-05      -263.76968550    365.300594    0.81570    0.00000    0.00000    7
    9      0.768D-05      0.121D-05      -263.76968550    365.300396    0.81567    0.00000    0.00000    0

 Final occupancy:   8   5   2   1

 !RHF STATE 1.1 Energy               -263.769685498814
 Nuclear energy                        85.92444068
 One-electron energy                 -532.34432427
 Two-electron energy                  182.65019809
 Virial quotient                       -1.00182930
 !RHF STATE 1.1 Dipole moment           0.81567010     0.00000000     0.00000000
 Dipole moment /Debye                   2.07309081     0.00000000     0.00000000

 Orbital energies:

         1.1          2.1          3.1          4.1          5.1          6.1          7.1          8.1          9.1         10.1
    -20.647936   -20.568730   -11.456823    -1.525594    -1.354143    -0.795933    -0.709585    -0.585967     0.028091     0.054113

         1.2          2.2          3.2          4.2          5.2          6.2          7.2
    -20.647982    -1.472524    -0.738190    -0.539308    -0.511575     0.082931     0.148069

         1.3          2.3          3.3          4.3
     -0.718584    -0.709708     0.046514     0.079059

         1.4          2.4          3.4
     -0.539382     0.167919     0.264354


 **********************************************************************************************************************************
 DATASETS  * FILE   NREC   LENGTH (MB)   RECORD NAMES
              1      18        3.25       500      610      700      900      950      970     1000      129      960     1100   
                                          VAR    BASINP    GEOM    SYMINP    ZMAT    AOBASIS   BASIS     P2S    ABASIS      S 
                                         1400     1410     1200     1210     1080     1600     1650     1700   
                                           T        V       H0       H01     AOSYM     SMH    MOLCAS    OPER   

              2       3        0.67       700     1000     2100   
                                         GEOM     BASIS     RHF  

 PROGRAMS   *        TOTAL        HF       INT
 CPU TIMES  *         5.38      1.21      4.09
 REAL TIME  *         5.98 SEC
 DISK USED  *       727.54 MB      
 SF USED    *         0.06 MB      
 GA USED    *         0.00 MB       (max)       0.00 MB       (current)
 **********************************************************************************************************************************


1PROGRAM * CCSD (Closed-shell coupled cluster)     Authors: C. Hampel, H.-J. Werner, 1991, M. Deegan, P.J. Knowles, 1992

                                  CCSD-F12 implementation by  H.-J. Werner, 2007

                   Density fitting integral evaluation by F.R. Manby, 2003,2007, G. Knizia, 2010

 Basis set CC-PVTZ/JKFIT generated.      Number of basis functions:   376 
 Basis set AUG-CC-PVTZ/MP2FIT generated. Number of basis functions:   516 

 Convergence thresholds:  THRVAR = 1.00D-08  THRDEN = 1.00D-06

 CCSD(T)     terms to be evaluated (factor= 1.000)


 Number of core orbitals:           4 (   3   1   0   0 )
 Number of closed-shell orbitals:  12 (   5   4   2   1 )
 Number of external orbitals:     214 (  76  54  52  32 )

 Molecular orbitals read from record     2100.2  Type=RHF/CANONICAL (state 1.1)

 MP2-F12 correlation treatment (H.-J. Werner, 2006)
 --------------------------------------------------

 Using MP2-F12 with ansatz 3C(FIX)

 Using projected zeroth-order Hamiltonian (+Z)

 FOCKRIB=T FOCKRIC=T FOCKRIP=T CABSP=T CABSA=T CABSK=T CABSF=T GBC=F EBC=F DMAT=T NOFIK=T NOPAO=1 SOLVE=-1  USEPAO=0
 EXCH_A= T EXCH_B= F EXCH_C= F EXCH_P= F
 
 Geminal basis:    OPTFULL  GEM_TYPE=SLATER  BETA=1.0  NGEM=6

 Optimizing Gaussian exponents for each gem_beta

 Geminal optimization for beta= 1.0000
 Weight function:   m=0, omega= 1.4646

 Augmented Hessian optimization of geminal fit. Trust ratio= 0.40000
 Convergence reached after   2 iterations. Final gradient= 8.24D-16, Step= 4.32D-06, Delta= 1.28D-09
 
 Alpha:                 0.19532     0.81920     2.85917     9.50073    35.69989   197.79328
 Coeff:                 0.27070     0.30552     0.18297     0.10986     0.06810     0.04224
 

 Symmetry turned off. Reference energy:       -263.769685498814

 All pairs explicitly correlated. Number of r12-pairs:           78
 
 AO(A)-basis ORBITAL           loaded. Number of functions:     230
 RI(R)-basis CC-PVTZ/JKFIT     loaded. Number of functions:     376
 DF-basis CC-PVTZ/JKFIT        loaded. Number of functions:     376

 Screening thresholds:   THRAO=  1.00D-10  THRMO=  1.00D-09  THRPROD=  1.00D-09
                         THRSW=  1.00D-05  THROV=  1.00D-12  THRF12=   1.00D-08

 CPU time for Fock operators                      0.92 sec
 
 Construction of ABS:
 Smallest eigenvalue of S          2.57E-04  (threshold= 1.00E-08)
 Ratio eigmin/eigmax               1.83E-06  (threshold= 1.00E-09)
 Smallest eigenvalue of S kept     2.57E-04  (threshold= 2.57E-04, 0 functions deleted, 376 kept)
 
 Construction of CABS:
 Smallest eigenvalue of S          2.30E-08  (threshold= 1.00E-08)
 Ratio eigmin/eigmax               2.30E-08  (threshold= 1.00E-09)
 Smallest eigenvalue of S kept     2.30E-08  (threshold= 2.30E-08, 0 functions deleted, 376 kept)
 
 CPU time for CABS singles                        0.17 sec

 CABS-singles contribution of  -0.01592216 patched into reference energy.
 New reference energy        -263.78560766
 
 AO(A)-basis ORBITAL           loaded. Number of functions:     230
 RI(R)-basis CC-PVTZ/JKFIT     loaded. Number of functions:     376
 DF-basis AUG-CC-PVTZ/MP2FIT   loaded. Number of functions:     516

 Screening thresholds:   THRAO=  1.00D-10  THRMO=  1.00D-09  THRPROD=  1.00D-09
                         THRSW=  1.00D-05  THROV=  1.00D-12  THRF12=   1.00D-08

 CPU time for 3-index integral evaluation         1.86 sec
 CPU time for first  half transformation          0.28 sec ( 9755.6 MFLOP/sec)
 CPU time for second half transformation          0.03 sec ( 3470.7 MFLOP/sec)
 CPU time for sorting                             0.19 sec
 CPU time for fitting                             0.05 sec (27861.0 MFLOP/sec)
 CPU time for tilde quantities                    0.06 sec (30814.7 MFLOP/sec)
 CPU time for assembly                            0.73 sec (31996.6 MFLOP/sec)
 CPU time for tranop_f12                          0.83 sec (36214.2 MFLOP/sec)
 CPU time for f12 integrals (total)               6.06 sec
 F12-matrices built in  3 passes.
 F12-matrices built in  3 passes.
 F12-matrices built in  3 passes.
 F12-matrices built in  3 passes.
 FC-matrix built in  3 passes.
 CPU time for f12 matrices (total)                0.49 sec

 Diagonal F12 approximation with fixed coefficients:  TSING= 0.500,  TTRIP= 0.250 (scaled by -1/beta)

 DF-MP2-F12 energy corrections:
 ------------------------------
 Approx.                                    Singlet             Triplet             Total
 DF-MP2-F12/3*C(DX,FIX)                -0.097446215651     -0.016932969885     -0.114379185536
 DF-MP2-F12/3*C(FIX)                   -0.079862378909     -0.013395065764     -0.093257444672
 DF-MP2-F12/3C(FIX)                    -0.080223290961     -0.013418401498     -0.093641692458

 DF-MP2-F12 correlation energies:
 --------------------------------
 Approx.                                    Singlet             Triplet             Ecorr            Total Energy
 DF-MP2                                -0.537728188843     -0.343079347135     -0.880807535978   -264.666415198292
 DF-MP2-F12/3*C(DX,FIX)                -0.635174404494     -0.360012317020     -0.995186721514   -264.780794383828
 DF-MP2-F12/3*C(FIX)                   -0.617590567752     -0.356474412899     -0.974064980650   -264.759672642964
 DF-MP2-F12/3C(FIX)                    -0.617951479804     -0.356497748633     -0.974449228436   -264.760056890750

 SCS-DF-MP2 energies (F_SING= 1.20000  F_TRIP= 0.62222  F_PARALLEL= 0.33333):
 ----------------------------------------------------------------------------
 SCS-DF-MP2                            -0.858745420384   -264.644353082698
 SCS-DF-MP2-F12/3*C(DX,FIX)            -0.986216949317   -264.771824611630
 SCS-DF-MP2-F12/3*C(FIX)               -0.962914982661   -264.748522644975
 SCS-DF-MP2-F12/3C(FIX)                -0.963362597136   -264.748970259449

 Symmetry restored.
 Symmetry transformation completed.

 Number of N-1 electron functions:              12
 Number of N-2 electron functions:              78
 Number of singly external CSFs:               732
 Number of doubly external CSFs:            836016
 Total number of CSFs:                      836749

 Pair and operator lists are different

 Length of J-op  integral file:             462.26 MB
 Length of K-op  integral file:             502.03 MB
 Length of 3-ext integral record:             0.00 MB

 Memory could be reduced to 38.69 Mwords without degradation in triples

 Integral transformation finished. Total CPU:   1.33 sec, npass=  1  Memory used:   6.07 MW

 Reference energy:                   -263.78560766

 Adding F12 terms to K(Cij), methodcc=6,  factor=1.0

 ITER.      SQ.NORM     CORR.ENERGY   TOTAL ENERGY   ENERGY CHANGE        DEN1      VAR(S)    VAR(P)  DIIS     TIME
   1      1.20214489    -0.86276131  -264.64836898     0.01806260     0.04669098  0.72D-02  0.56D-02  1  1    10.19
   2      1.21645655    -0.85853649  -264.64414415     0.00422483    -0.02015065  0.86D-04  0.59D-03  2  2    11.09
   3      1.22181827    -0.85863320  -264.64424087    -0.00009671    -0.00236461  0.13D-03  0.32D-04  3  3    11.98
   4      1.22462086    -0.85850541  -264.64411307     0.00012779    -0.00141157  0.76D-05  0.41D-05  4  4    12.89
   5      1.22565106    -0.85846774  -264.64407540     0.00003767    -0.00036639  0.56D-06  0.29D-06  5  5    13.80
   6      1.22581325    -0.85844087  -264.64404853     0.00002687    -0.00000805  0.40D-07  0.24D-07  6  6    14.71
   7      1.22584261    -0.85843845  -264.64404611     0.00000242    -0.00000622  0.25D-08  0.40D-08  6  4    15.61
   8      1.22584291    -0.85843796  -264.64404562     0.00000049     0.00000194  0.39D-09  0.27D-09  6  1    16.49
   9      1.22584353    -0.85843803  -264.64404569    -0.00000007     0.00000056  0.25D-10  0.21D-10  6  2    17.40

 Norm of t1 vector:      0.10597225      S-energy:    -0.00000003      T1 diagnostic:  0.01529578
                                                                       D1 diagnostic:  0.04496752

 Adding energy correction from Wij-K(Fij), methodcc=6  factor=1.0
 
  CCSD correlation energy              -0.858438025161
  MP2-F12 correction (uncoupled)       -0.092485321067
  C*T doubles correction               -0.001475297535
  f12b correction                       0.015406547664


 Total CPU time for triples:     28.34 sec


 RESULTS
 =======

  Reference energy                   -263.769685498814
  F12 singles correction               -0.015922163500

 F12 singles corrections added to reference energy

  New reference energy               -263.785607662314

  F12a singlet correction              -0.080423577597
  F12a triplet correction              -0.013537041005
  F12a total correction                -0.093960618603

 F12a corrections for ansatz F12/3C(FIX) added to CCSD energy
 
  CCSD-F12a singlet pair energy        -0.641889227858
  CCSD-F12a triplet pair energy        -0.310509388592
  CCSD-F12a correlation energy         -0.952398643763

  Triples (T) contribution             -0.037640353983
  Total correlation energy             -0.990038997746

  CCSD-F12a total energy             -264.738006306077
  CCSD[T]-F12a energy                -264.778189857807
  CCSD-T-F12a energy                 -264.774709352107
 !CCSD(T)-F12a total energy          -264.775646660060

 F12b corrections for ansatz F12/3C(FIX) added to CCSD(T)-F12a energy

  CCSD-F12b singlet pair energy        -0.627705981468
  CCSD-F12b triplet pair energy        -0.309286087318
  CCSD-F12b correlation energy         -0.936992096100

  Triples (T) contribution             -0.037640353983
  Total correlation energy             -0.974632450082

  CCSD-F12b total energy             -264.722599758414
  CCSD[T]-F12b energy                -264.762783310143
  CCSD-T-F12b energy                 -264.759302804444
 !CCSD(T)-F12b total energy          -264.760240112396

 Timing summary (sec):

 STEP                 CPU(USER)    SYS     CPU(TOT)    WALL
 Transformation          1.34      0.21      1.55      1.54
 CCSD iterations         8.05      0.67      8.72      8.71
 Triples                28.34      0.83     29.17     29.15
 MP2-F12                 8.02      1.08      9.10      9.11
 F12b energy             0.53      0.02      0.55      0.55

 Program statistics:

 Available memory in ccsd:                99998934
 Min. memory needed in ccsd:               2244783
 Max. memory used in ccsd:                 3005571
 Max. memory used in cckext:               2769663 (10 integral passes)



 **********************************************************************************************************************************
 DATASETS  * FILE   NREC   LENGTH (MB)   RECORD NAMES
              1      20      137.19       500      610      700      900      950      970     1000      129      960     1100   
                                          VAR    BASINP    GEOM    SYMINP    ZMAT    AOBASIS   BASIS     P2S    ABASIS      S 
                                         1400     1410     1200     1210     1080     1600     1650     1700      960(1)  1380   
                                           T        V       H0       H01     AOSYM     SMH    MOLCAS    OPER    ABASIS    JKOP   

              2       5        0.97       700     1000     2100     7360     7350   
                                         GEOM     BASIS     RHF    F12ABS    EF12   

 PROGRAMS   *        TOTAL   CCSD(T)        HF       INT
 CPU TIMES  *        51.70     46.32      1.21      4.09
 REAL TIME  *        55.35 SEC
 DISK USED  *       949.20 MB      
 SF USED    *         1.33 GB      
 GA USED    *         2.40 MB       (max)       0.00 MB       (current)
 **********************************************************************************************************************************

     CCSD(T)-F12        HF-SCF  
   -264.76024011   -263.76968550
 **********************************************************************************************************************************
 Variable memory released
