
 Primary working directories    : /scratch/kee
 Secondary working directories  : /scratch/kee
 Wavefunction directory         : /home/kee/wfu/
 Main file repository           : /scratch/kee/

 ARCHNAME  : Linux/x86_64
 FC        : /opt/intel/composer_xe_2015.0.090/bin/intel64/ifort
 FCVERSION : 15.0.0
 BLASLIB   : -L/opt/intel/mkl/lib/intel64 -lmkl_intel_ilp64 -lmkl_sequential -lmkl_core
 id        : emory

 Nodes     nprocs
 node25       3
 Number of processes for MPI-2 version of Molpro:   nprocs(total)=    4   nprocs(compute)=    3   nprocs(helper)=    1
 ga_uses_ma=false, calling ma_init with nominal heap.
 GA-space will be limited to   8.0 MW (determined by -G option)

 Using customized tuning parameters: mindgm=7; mindgv=32; mindgc=1; mindgr=1; noblas=0; mincuda=1000; minvec=7
 default implementation of scratch files=sf  

 ***,co2h2o
 memory,100,m
 basis avtz
 geomtype = xyz
 geometry = {
 6
       0.00000000
 O     0.00351000    1.16210700    0.00000000
 O     0.00351000   -1.16210700    0.00000000
 O     5.36968000    0.00000000    0.00000000
 H     5.95589800    0.00000000    0.75853100
 H     5.95589800    0.00000000   -0.75853100
 C     0.01968000    0.00000000    0.00000000
 }
 hf
 ccsd(t)-f12
 ---

 Variables initialized (665), CPU time= 0.01 sec
 Commands  initialized (462), CPU time= 0.01 sec, 486 directives.
 Default parameters read. Elapsed time= 0.03 sec

 Checking input...
 Passed
1


                                         ***  PROGRAM SYSTEM MOLPRO  ***
                         Copyright, University College Cardiff Consultants Limited, 2008

                                    Version 2010.1 linked 9 Dec 2014 15:06:28 


 **********************************************************************************************************************************
 LABEL *   co2h2o                                                                        
 Linux-2.6.32-504.el6.x86_64/node25(x86_64) 64 bit mpp version                           DATE: 12-Dec-16          TIME: 14:16:41  
 **********************************************************************************************************************************

 Patch level:      19
 **********************************************************************************************************************************

 Variable memory set to  100000000 words,  buffer space   230000 words

 SETTING BASIS          =    AVTZ
 SETTING GEOMTYPE       =    XYZ

Geometry recognized as XYZ



 Recomputing integrals since basis changed


 Using spherical harmonics

 Library entry O      S aug-cc-pVTZ          selected for orbital group  1
 Library entry O      P aug-cc-pVTZ          selected for orbital group  1
 Library entry O      D aug-cc-pVTZ          selected for orbital group  1
 Library entry O      F aug-cc-pVTZ          selected for orbital group  1
 Library entry H      S aug-cc-pVTZ          selected for orbital group  2
 Library entry H      P aug-cc-pVTZ          selected for orbital group  2
 Library entry H      D aug-cc-pVTZ          selected for orbital group  2
 Library entry C      S aug-cc-pVTZ          selected for orbital group  3
 Library entry C      P aug-cc-pVTZ          selected for orbital group  3
 Library entry C      D aug-cc-pVTZ          selected for orbital group  3
 Library entry C      F aug-cc-pVTZ          selected for orbital group  3

1PROGRAM * SEWARD (Integral evaluation for generally contracted gaussian basis sets)     Author: Roland Lindh, 1990

 Geometry written to block  1 of record 700


 Point group  C2v 



 ATOMIC COORDINATES

 NR  ATOM    CHARGE       X              Y              Z

   1  O       8.00    0.006632939    2.196063965    0.000000000
   2  O       8.00    0.006632939   -2.196063965    0.000000000
   3  O       8.00   10.147224613    0.000000000    0.000000000
   4  H       1.00   11.255016087    0.000000000    1.433415852
   5  H       1.00   11.255016087    0.000000000   -1.433415852
   6  C       6.00    0.037189810    0.000000000    0.000000000

 Bond lengths in Bohr (Angstrom)

 1-6  2.196276545  2-6  2.196276545  3-4  1.811596797  3-5  1.811596797
     (1.162219492)     (1.162219492)     (0.958655737)     (0.958655737)

 Bond angles

  1-6-2  178.40563223   4-3-5  104.60391356

 NUCLEAR CHARGE:                   32
 NUMBER OF PRIMITIVE AOS:         322
 NUMBER OF SYMMETRY AOS:          282
 NUMBER OF CONTRACTIONS:          230   (  84A1  +  59B1  +  54B2  +  33A2  )
 NUMBER OF CORE ORBITALS:           4   (   3A1  +   1B1  +   0B2  +   0A2  )
 NUMBER OF VALENCE ORBITALS:       18   (   8A1  +   5B1  +   4B2  +   1A2  )


 NUCLEAR REPULSION ENERGY   88.37864638


 Eigenvalues of metric

         1 0.359E-03 0.397E-03 0.898E-03 0.168E-02 0.316E-02 0.320E-02 0.398E-02 0.437E-02
         2 0.349E-03 0.921E-03 0.175E-02 0.340E-02 0.573E-02 0.743E-02 0.186E-01 0.210E-01
         3 0.391E-03 0.166E-02 0.318E-02 0.499E-02 0.622E-02 0.999E-02 0.135E-01 0.155E-01
         4 0.348E-02 0.124E-01 0.296E-01 0.363E-01 0.561E-01 0.679E-01 0.110E+00 0.139E+00


 Contracted 2-electron integrals neglected if value below      1.0D-11
 AO integral compression algorithm  1   Integral accuracy      1.0D-11

     239.600 MB (compressed) written to integral file ( 27.1%)

     Node minimum: 72.352 MB, node maximum: 90.440 MB


 NUMBER OF SORTED TWO-ELECTRON INTEGRALS:   29979201.     BUFFER LENGTH:  32768
 NUMBER OF SEGMENTS:   2  SEGMENT LENGTH:   15996954      RECORD LENGTH: 524288

 Memory used in sort:      16.55 MW

 SORT1 READ   110549524. AND WROTE    16600044. INTEGRALS IN     48 RECORDS. CPU TIME:     1.99 SEC, REAL TIME:     2.20 SEC
 SORT2 READ    49898701. AND WROTE    89930217. INTEGRALS IN   1035 RECORDS. CPU TIME:     0.54 SEC, REAL TIME:     0.69 SEC

 Node minimum:    29974277.  Node maximum:    29979201. integrals

 OPERATOR DM      FOR CENTER  0  COORDINATES:    0.000000    0.000000    0.000000


 **********************************************************************************************************************************
 DATASETS  * FILE   NREC   LENGTH (MB)   RECORD NAMES
              1      18        3.23       500      610      700      900      950      970     1000      129      960     1100   
                                          VAR    BASINP    GEOM    SYMINP    ZMAT    AOBASIS   BASIS     P2S    ABASIS      S 
                                         1400     1410     1200     1210     1080     1600     1650     1700   
                                           T        V       H0       H01     AOSYM     SMH    MOLCAS    OPER   

 PROGRAMS   *        TOTAL       INT
 CPU TIMES  *         4.40      4.32
 REAL TIME  *         4.85 SEC
 DISK USED  *       834.47 MB      
 GA USED    *         0.00 MB       (max)       0.00 MB       (current)
 **********************************************************************************************************************************

1PROGRAM * RHF-SCF (CLOSED SHELL)       Authors: W. Meyer, H.-J. Werner


 NUMBER OF ELECTRONS:      16+   16-
 CONVERGENCE THRESHOLDS:    1.00E-05 (Density)    1.00E-07 (Energy)
 MAX. NUMBER OF ITERATIONS:       60
 INTERPOLATION TYPE:            DIIS
 INTERPOLATION STEPS:              2 (START)      1 (STEP)
 LEVEL SHIFTS:                  0.00 (CLOSED)  0.00 (OPEN) 



 Orbital guess generated from atomic densities. Full valence occupancy:   11   6   4   1

 Molecular orbital dump at record        2100.2

 Initial alpha occupancy:   8   5   2   1
 Initial beta  occupancy:   8   5   2   1
 Wave function symmetry:    1

 ITERATION    DDIFF          GRAD             ENERGY        2-EL.EN.            DIPOLE MOMENTS         DIIS
    1      0.000D+00      0.000D+00      -263.66111896    372.547886    1.18067    0.00000    0.00000    0
    2      0.000D+00      0.887D-02      -263.72627372    367.895544    0.70836    0.00000    0.00000    1
    3      0.142D-01      0.601D-02      -263.76927828    370.465424    0.82400    0.00000    0.00000    2
    4      0.586D-02      0.568D-03      -263.76977331    370.256048    0.82728    0.00000    0.00000    3
    5      0.695D-03      0.165D-03      -263.76983140    370.256484    0.82207    0.00000    0.00000    4
    6      0.259D-03      0.669D-04      -263.76983861    370.271352    0.82281    0.00000    0.00000    5
    7      0.858D-04      0.163D-04      -263.76983934    370.262913    0.82237    0.00000    0.00000    6
    8      0.281D-04      0.359D-05      -263.76983939    370.264223    0.82239    0.00000    0.00000    7
    9      0.768D-05      0.121D-05      -263.76983940    370.264022    0.82236    0.00000    0.00000    0

 Final occupancy:   8   5   2   1

 !RHF STATE 1.1 Energy               -263.769839395180
 Nuclear energy                        88.37864638
 One-electron energy                 -537.28049665
 Two-electron energy                  185.13201087
 Virial quotient                       -1.00183121
 !RHF STATE 1.1 Dipole moment           0.82235537     0.00000000     0.00000000
 Dipole moment /Debye                   2.09008196     0.00000000     0.00000000

 Orbital energies:

         1.1          2.1          3.1          4.1          5.1          6.1          7.1          8.1          9.1         10.1
    -20.646379   -20.569337   -11.455312    -1.524036    -1.354759    -0.794433    -0.707979    -0.586678     0.027911     0.056180

         1.2          2.2          3.2          4.2          5.2          6.2          7.2
    -20.646425    -1.470976    -0.736705    -0.537765    -0.512202     0.084056     0.148193

         1.3          2.3          3.3          4.3
     -0.719200    -0.708179     0.046253     0.081132

         1.4          2.4          3.4
     -0.537873     0.168608     0.264209


 **********************************************************************************************************************************
 DATASETS  * FILE   NREC   LENGTH (MB)   RECORD NAMES
              1      18        3.25       500      610      700      900      950      970     1000      129      960     1100   
                                          VAR    BASINP    GEOM    SYMINP    ZMAT    AOBASIS   BASIS     P2S    ABASIS      S 
                                         1400     1410     1200     1210     1080     1600     1650     1700   
                                           T        V       H0       H01     AOSYM     SMH    MOLCAS    OPER   

              2       3        0.67       700     1000     2100   
                                         GEOM     BASIS     RHF  

 PROGRAMS   *        TOTAL        HF       INT
 CPU TIMES  *         5.66      1.26      4.32
 REAL TIME  *         6.20 SEC
 DISK USED  *       851.86 MB      
 SF USED    *         0.06 MB      
 GA USED    *         0.00 MB       (max)       0.00 MB       (current)
 **********************************************************************************************************************************


1PROGRAM * CCSD (Closed-shell coupled cluster)     Authors: C. Hampel, H.-J. Werner, 1991, M. Deegan, P.J. Knowles, 1992

                                  CCSD-F12 implementation by  H.-J. Werner, 2007

                   Density fitting integral evaluation by F.R. Manby, 2003,2007, G. Knizia, 2010

 Basis set CC-PVTZ/JKFIT generated.      Number of basis functions:   376 
 Basis set AUG-CC-PVTZ/MP2FIT generated. Number of basis functions:   516 

 Convergence thresholds:  THRVAR = 1.00D-08  THRDEN = 1.00D-06

 CCSD(T)     terms to be evaluated (factor= 1.000)


 Number of core orbitals:           4 (   3   1   0   0 )
 Number of closed-shell orbitals:  12 (   5   4   2   1 )
 Number of external orbitals:     214 (  76  54  52  32 )

 Molecular orbitals read from record     2100.2  Type=RHF/CANONICAL (state 1.1)

 MP2-F12 correlation treatment (H.-J. Werner, 2006)
 --------------------------------------------------

 Using MP2-F12 with ansatz 3C(FIX)

 Using projected zeroth-order Hamiltonian (+Z)

 FOCKRIB=T FOCKRIC=T FOCKRIP=T CABSP=T CABSA=T CABSK=T CABSF=T GBC=F EBC=F DMAT=T NOFIK=T NOPAO=1 SOLVE=-1  USEPAO=0
 EXCH_A= T EXCH_B= F EXCH_C= F EXCH_P= F
 
 Geminal basis:    OPTFULL  GEM_TYPE=SLATER  BETA=1.0  NGEM=6

 Optimizing Gaussian exponents for each gem_beta

 Geminal optimization for beta= 1.0000
 Weight function:   m=0, omega= 1.4646

 Augmented Hessian optimization of geminal fit. Trust ratio= 0.40000
 Convergence reached after   2 iterations. Final gradient= 8.24D-16, Step= 4.32D-06, Delta= 1.28D-09
 
 Alpha:                 0.19532     0.81920     2.85917     9.50073    35.69989   197.79328
 Coeff:                 0.27070     0.30552     0.18297     0.10986     0.06810     0.04224
 

 Symmetry turned off. Reference energy:       -263.769839395179

 All pairs explicitly correlated. Number of r12-pairs:           78
 
 AO(A)-basis ORBITAL           loaded. Number of functions:     230
 RI(R)-basis CC-PVTZ/JKFIT     loaded. Number of functions:     376
 DF-basis CC-PVTZ/JKFIT        loaded. Number of functions:     376

 Screening thresholds:   THRAO=  1.00D-10  THRMO=  1.00D-09  THRPROD=  1.00D-09
                         THRSW=  1.00D-05  THROV=  1.00D-12  THRF12=   1.00D-08

 CPU time for Fock operators                      0.90 sec
 
 Construction of ABS:
 Smallest eigenvalue of S          2.57E-04  (threshold= 1.00E-08)
 Ratio eigmin/eigmax               1.83E-06  (threshold= 1.00E-09)
 Smallest eigenvalue of S kept     2.57E-04  (threshold= 2.57E-04, 0 functions deleted, 376 kept)
 
 Construction of CABS:
 Smallest eigenvalue of S          2.30E-08  (threshold= 1.00E-08)
 Ratio eigmin/eigmax               2.30E-08  (threshold= 1.00E-09)
 Smallest eigenvalue of S kept     2.30E-08  (threshold= 2.30E-08, 0 functions deleted, 376 kept)
 
 CPU time for CABS singles                        0.16 sec

 CABS-singles contribution of  -0.01592125 patched into reference energy.
 New reference energy        -263.78576065
 
 AO(A)-basis ORBITAL           loaded. Number of functions:     230
 RI(R)-basis CC-PVTZ/JKFIT     loaded. Number of functions:     376
 DF-basis AUG-CC-PVTZ/MP2FIT   loaded. Number of functions:     516

 Screening thresholds:   THRAO=  1.00D-10  THRMO=  1.00D-09  THRPROD=  1.00D-09
                         THRSW=  1.00D-05  THROV=  1.00D-12  THRF12=   1.00D-08

 CPU time for 3-index integral evaluation         2.09 sec
 CPU time for first  half transformation          0.22 sec (13481.5 MFLOP/sec)
 CPU time for second half transformation          0.04 sec ( 2661.1 MFLOP/sec)
 CPU time for sorting                             0.16 sec
 CPU time for fitting                             0.05 sec (27861.0 MFLOP/sec)
 CPU time for tilde quantities                    0.07 sec (26412.6 MFLOP/sec)
 CPU time for assembly                            0.74 sec (31543.6 MFLOP/sec)
 CPU time for tranop_f12                          0.87 sec (34499.1 MFLOP/sec)
 CPU time for f12 integrals (total)               6.23 sec
 F12-matrices built in  3 passes.
 F12-matrices built in  3 passes.
 F12-matrices built in  3 passes.
 F12-matrices built in  3 passes.
 FC-matrix built in  3 passes.
 CPU time for f12 matrices (total)                0.47 sec

 Diagonal F12 approximation with fixed coefficients:  TSING= 0.500,  TTRIP= 0.250 (scaled by -1/beta)

 DF-MP2-F12 energy corrections:
 ------------------------------
 Approx.                                    Singlet             Triplet             Total
 DF-MP2-F12/3*C(DX,FIX)                -0.097442489801     -0.016932394277     -0.114374884078
 DF-MP2-F12/3*C(FIX)                   -0.079859538703     -0.013394573278     -0.093254111981
 DF-MP2-F12/3C(FIX)                    -0.080220604570     -0.013418029424     -0.093638633994

 DF-MP2-F12 correlation energies:
 --------------------------------
 Approx.                                    Singlet             Triplet             Ecorr            Total Energy
 DF-MP2                                -0.537719142695     -0.343086694918     -0.880805837613   -264.666566485630
 DF-MP2-F12/3*C(DX,FIX)                -0.635161632496     -0.360019089195     -0.995180721691   -264.780941369708
 DF-MP2-F12/3*C(FIX)                   -0.617578681398     -0.356481268196     -0.974059949594   -264.759820597611
 DF-MP2-F12/3C(FIX)                    -0.617939747265     -0.356504724342     -0.974444471607   -264.760205119624

 SCS-DF-MP2 energies (F_SING= 1.20000  F_TRIP= 0.62222  F_PARALLEL= 0.33333):
 ----------------------------------------------------------------------------
 SCS-DF-MP2                            -0.858739136961   -264.644499784978
 SCS-DF-MP2-F12/3*C(DX,FIX)            -0.986205836717   -264.771966484734
 SCS-DF-MP2-F12/3*C(FIX)               -0.962904984555   -264.748665632572
 SCS-DF-MP2-F12/3C(FIX)                -0.963352858531   -264.749113506548

 Symmetry restored.
 Symmetry transformation completed.

 Number of N-1 electron functions:              12
 Number of N-2 electron functions:              78
 Number of singly external CSFs:               732
 Number of doubly external CSFs:            836016
 Total number of CSFs:                      836749

 Pair and operator lists are different

 Length of J-op  integral file:             462.26 MB
 Length of K-op  integral file:             502.03 MB
 Length of 3-ext integral record:             0.00 MB

 Memory could be reduced to 38.69 Mwords without degradation in triples

 Integral transformation finished. Total CPU:   1.38 sec, npass=  1  Memory used:   6.07 MW

 Reference energy:                   -263.78576065

 Adding F12 terms to K(Cij), methodcc=6,  factor=1.0

 ITER.      SQ.NORM     CORR.ENERGY   TOTAL ENERGY   ENERGY CHANGE        DEN1      VAR(S)    VAR(P)  DIIS     TIME
   1      1.20213725    -0.86276227  -264.64852292     0.01805985     0.04668170  0.72D-02  0.56D-02  1  1    10.38
   2      1.21644720    -0.85854032  -264.64430097     0.00422195    -0.02014736  0.86D-04  0.59D-03  2  2    11.30
   3      1.22180952    -0.85863760  -264.64439825    -0.00009729    -0.00236490  0.13D-03  0.32D-04  3  3    12.22
   4      1.22461256    -0.85850990  -264.64427055     0.00012770    -0.00141164  0.76D-05  0.41D-05  4  4    13.15
   5      1.22564288    -0.85847225  -264.64423290     0.00003765    -0.00036635  0.56D-06  0.29D-06  5  5    14.11
   6      1.22580510    -0.85844538  -264.64420603     0.00002687    -0.00000806  0.40D-07  0.24D-07  6  6    15.06
   7      1.22583447    -0.85844296  -264.64420361     0.00000242    -0.00000622  0.25D-08  0.40D-08  6  4    16.00
   8      1.22583477    -0.85844247  -264.64420312     0.00000049     0.00000194  0.39D-09  0.27D-09  6  1    16.93
   9      1.22583539    -0.85844253  -264.64420318    -0.00000007     0.00000056  0.26D-10  0.21D-10  6  2    17.87

 Norm of t1 vector:      0.10597720      S-energy:    -0.00000003      T1 diagnostic:  0.01529649
                                                                       D1 diagnostic:  0.04498425

 Adding energy correction from Wij-K(Fij), methodcc=6  factor=1.0
 
  CCSD correlation energy              -0.858442533668
  MP2-F12 correction (uncoupled)       -0.092482507059
  C*T doubles correction               -0.001474880259
  f12b correction                       0.015406316217


 Total CPU time for triples:     24.13 sec


 RESULTS
 =======

  Reference energy                   -263.769839395179
  F12 singles correction               -0.015921252838

 F12 singles corrections added to reference energy

  New reference energy               -263.785760648017

  F12a singlet correction              -0.080420777662
  F12a triplet correction              -0.013536609656
  F12a total correction                -0.093957387317

 F12a corrections for ansatz F12/3C(FIX) added to CCSD energy
 
  CCSD-F12a singlet pair energy        -0.641876338243
  CCSD-F12a triplet pair energy        -0.310523554965
  CCSD-F12a correlation energy         -0.952399920985

  Triples (T) contribution             -0.037641444646
  Total correlation energy             -0.990041365631

  CCSD-F12a total energy             -264.738160569002
  CCSD[T]-F12a energy                -264.778344579703
  CCSD-T-F12a energy                 -264.774865090895
 !CCSD(T)-F12a total energy          -264.775802013648

 F12b corrections for ansatz F12/3C(FIX) added to CCSD(T)-F12a energy

  CCSD-F12b singlet pair energy        -0.627693348959
  CCSD-F12b triplet pair energy        -0.309300228031
  CCSD-F12b correlation energy         -0.936993604768

  Triples (T) contribution             -0.037641444646
  Total correlation energy             -0.974635049414

  CCSD-F12b total energy             -264.722754252785
  CCSD[T]-F12b energy                -264.762938263485
  CCSD-T-F12b energy                 -264.759458774678
 !CCSD(T)-F12b total energy          -264.760395697431

 Timing summary (sec):

 STEP                 CPU(USER)    SYS     CPU(TOT)    WALL
 Transformation          1.39      0.20      1.59      1.59
 CCSD iterations         8.35      0.70      9.05      9.05
 Triples                24.13      0.70     24.83     24.82
 MP2-F12                 8.13      1.06      9.19      9.19
 F12b energy             0.57      0.01      0.58      0.58

 Program statistics:

 Available memory in ccsd:                99998934
 Min. memory needed in ccsd:               2244783
 Max. memory used in ccsd:                 3005571
 Max. memory used in cckext:               2769663 (10 integral passes)



 **********************************************************************************************************************************
 DATASETS  * FILE   NREC   LENGTH (MB)   RECORD NAMES
              1      20      137.19       500      610      700      900      950      970     1000      129      960     1100   
                                          VAR    BASINP    GEOM    SYMINP    ZMAT    AOBASIS   BASIS     P2S    ABASIS      S 
                                         1400     1410     1200     1210     1080     1600     1650     1700      960(1)  1380   
                                           T        V       H0       H01     AOSYM     SMH    MOLCAS    OPER    ABASIS    JKOP   

              2       5        0.97       700     1000     2100     7360     7350   
                                         GEOM     BASIS     RHF    F12ABS    EF12   

 PROGRAMS   *        TOTAL   CCSD(T)        HF       INT
 CPU TIMES  *        48.36     42.70      1.26      4.32
 REAL TIME  *        51.68 SEC
 DISK USED  *         1.07 GB      
 SF USED    *         1.33 GB      
 GA USED    *         2.40 MB       (max)       0.00 MB       (current)
 **********************************************************************************************************************************

     CCSD(T)-F12        HF-SCF  
   -264.76039570   -263.76983940
 **********************************************************************************************************************************
 Variable memory released
