
 Primary working directories    : /scratch/kee
 Secondary working directories  : /scratch/kee
 Wavefunction directory         : /home/kee/wfu/
 Main file repository           : /scratch/kee/

 ARCHNAME  : Linux/x86_64
 FC        : /opt/intel/composer_xe_2015.0.090/bin/intel64/ifort
 FCVERSION : 15.0.0
 BLASLIB   : -L/opt/intel/mkl/lib/intel64 -lmkl_intel_ilp64 -lmkl_sequential -lmkl_core
 id        : emory

 Nodes     nprocs
 node25       3
 Number of processes for MPI-2 version of Molpro:   nprocs(total)=    4   nprocs(compute)=    3   nprocs(helper)=    1
 ga_uses_ma=false, calling ma_init with nominal heap.
 GA-space will be limited to   8.0 MW (determined by -G option)

 Using customized tuning parameters: mindgm=7; mindgv=32; mindgc=1; mindgr=1; noblas=0; mincuda=1000; minvec=7
 default implementation of scratch files=sf  

 ***,co2h2o
 memory,100,m
 basis avtz
 geomtype = xyz
 geometry = {
 6
       0.00000000
 O     0.00351000    1.16210700    0.00000000
 O     0.00351000   -1.16210700    0.00000000
 O     5.01968000    0.00000000    0.00000000
 H     5.60589800    0.00000000    0.75853100
 H     5.60589800    0.00000000   -0.75853100
 C     0.01968000    0.00000000    0.00000000
 }
 hf
 ccsd(t)-f12
 ---

 Variables initialized (665), CPU time= 0.00 sec
 Commands  initialized (462), CPU time= 0.01 sec, 486 directives.
 Default parameters read. Elapsed time= 0.05 sec

 Checking input...
 Passed
1


                                         ***  PROGRAM SYSTEM MOLPRO  ***
                         Copyright, University College Cardiff Consultants Limited, 2008

                                    Version 2010.1 linked 9 Dec 2014 15:06:28 


 **********************************************************************************************************************************
 LABEL *   co2h2o                                                                        
 Linux-2.6.32-504.el6.x86_64/node25(x86_64) 64 bit mpp version                           DATE: 12-Dec-16          TIME: 14:10:03  
 **********************************************************************************************************************************

 Patch level:      19
 **********************************************************************************************************************************

 Variable memory set to  100000000 words,  buffer space   230000 words

 SETTING BASIS          =    AVTZ
 SETTING GEOMTYPE       =    XYZ

Geometry recognized as XYZ



 Recomputing integrals since basis changed


 Using spherical harmonics

 Library entry O      S aug-cc-pVTZ          selected for orbital group  1
 Library entry O      P aug-cc-pVTZ          selected for orbital group  1
 Library entry O      D aug-cc-pVTZ          selected for orbital group  1
 Library entry O      F aug-cc-pVTZ          selected for orbital group  1
 Library entry H      S aug-cc-pVTZ          selected for orbital group  2
 Library entry H      P aug-cc-pVTZ          selected for orbital group  2
 Library entry H      D aug-cc-pVTZ          selected for orbital group  2
 Library entry C      S aug-cc-pVTZ          selected for orbital group  3
 Library entry C      P aug-cc-pVTZ          selected for orbital group  3
 Library entry C      D aug-cc-pVTZ          selected for orbital group  3
 Library entry C      F aug-cc-pVTZ          selected for orbital group  3

1PROGRAM * SEWARD (Integral evaluation for generally contracted gaussian basis sets)     Author: Roland Lindh, 1990

 Geometry written to block  1 of record 700


 Point group  C2v 



 ATOMIC COORDINATES

 NR  ATOM    CHARGE       X              Y              Z

   1  O       8.00    0.006632939    2.196063965    0.000000000
   2  O       8.00    0.006632939   -2.196063965    0.000000000
   3  O       8.00    9.485820467    0.000000000    0.000000000
   4  H       1.00   10.593611941    0.000000000    1.433415852
   5  H       1.00   10.593611941    0.000000000   -1.433415852
   6  C       6.00    0.037189810    0.000000000    0.000000000

 Bond lengths in Bohr (Angstrom)

 1-6  2.196276545  2-6  2.196276545  3-4  1.811596797  3-5  1.811596797
     (1.162219492)     (1.162219492)     (0.958655737)     (0.958655737)

 Bond angles

  1-6-2  178.40563223   4-3-5  104.60391356

 NUCLEAR CHARGE:                   32
 NUMBER OF PRIMITIVE AOS:         322
 NUMBER OF SYMMETRY AOS:          282
 NUMBER OF CONTRACTIONS:          230   (  84A1  +  59B1  +  54B2  +  33A2  )
 NUMBER OF CORE ORBITALS:           4   (   3A1  +   1B1  +   0B2  +   0A2  )
 NUMBER OF VALENCE ORBITALS:       18   (   8A1  +   5B1  +   4B2  +   1A2  )


 NUCLEAR REPULSION ENERGY   89.75795157


 Eigenvalues of metric

         1 0.359E-03 0.390E-03 0.898E-03 0.167E-02 0.314E-02 0.320E-02 0.394E-02 0.429E-02
         2 0.349E-03 0.921E-03 0.175E-02 0.338E-02 0.566E-02 0.744E-02 0.180E-01 0.209E-01
         3 0.390E-03 0.165E-02 0.318E-02 0.491E-02 0.621E-02 0.994E-02 0.135E-01 0.154E-01
         4 0.348E-02 0.124E-01 0.296E-01 0.363E-01 0.560E-01 0.679E-01 0.110E+00 0.139E+00


 Contracted 2-electron integrals neglected if value below      1.0D-11
 AO integral compression algorithm  1   Integral accuracy      1.0D-11

     255.853 MB (compressed) written to integral file ( 28.7%)

     Node minimum: 83.362 MB, node maximum: 88.080 MB


 NUMBER OF SORTED TWO-ELECTRON INTEGRALS:   29979201.     BUFFER LENGTH:  32768
 NUMBER OF SEGMENTS:   2  SEGMENT LENGTH:   15996954      RECORD LENGTH: 524288

 Memory used in sort:      16.55 MW

 SORT1 READ   111259836. AND WROTE    18025062. INTEGRALS IN     52 RECORDS. CPU TIME:     2.26 SEC, REAL TIME:     2.53 SEC
 SORT2 READ    54206072. AND WROTE    89930217. INTEGRALS IN   1008 RECORDS. CPU TIME:     0.59 SEC, REAL TIME:     0.78 SEC

 Node minimum:    29974277.  Node maximum:    29979201. integrals

 OPERATOR DM      FOR CENTER  0  COORDINATES:    0.000000    0.000000    0.000000


 **********************************************************************************************************************************
 DATASETS  * FILE   NREC   LENGTH (MB)   RECORD NAMES
              1      18        3.23       500      610      700      900      950      970     1000      129      960     1100   
                                          VAR    BASINP    GEOM    SYMINP    ZMAT    AOBASIS   BASIS     P2S    ABASIS      S 
                                         1400     1410     1200     1210     1080     1600     1650     1700   
                                           T        V       H0       H01     AOSYM     SMH    MOLCAS    OPER   

 PROGRAMS   *        TOTAL       INT
 CPU TIMES  *         4.86      4.76
 REAL TIME  *         5.46 SEC
 DISK USED  *       891.45 MB      
 GA USED    *         0.00 MB       (max)       0.00 MB       (current)
 **********************************************************************************************************************************

1PROGRAM * RHF-SCF (CLOSED SHELL)       Authors: W. Meyer, H.-J. Werner


 NUMBER OF ELECTRONS:      16+   16-
 CONVERGENCE THRESHOLDS:    1.00E-05 (Density)    1.00E-07 (Energy)
 MAX. NUMBER OF ITERATIONS:       60
 INTERPOLATION TYPE:            DIIS
 INTERPOLATION STEPS:              2 (START)      1 (STEP)
 LEVEL SHIFTS:                  0.00 (CLOSED)  0.00 (OPEN) 



 Orbital guess generated from atomic densities. Full valence occupancy:   11   6   4   1

 Molecular orbital dump at record        2100.2

 Initial alpha occupancy:   8   5   2   1
 Initial beta  occupancy:   8   5   2   1
 Wave function symmetry:    1

 ITERATION    DDIFF          GRAD             ENERGY        2-EL.EN.            DIPOLE MOMENTS         DIIS
    1      0.000D+00      0.000D+00      -263.66139188    375.352408    1.18071    0.00000    0.00000    0
    2      0.000D+00      0.886D-02      -263.72649906    370.686867    0.71505    0.00000    0.00000    1
    3      0.142D-01      0.601D-02      -263.76939292    373.256682    0.82862    0.00000    0.00000    2
    4      0.586D-02      0.568D-03      -263.76988793    373.048224    0.83185    0.00000    0.00000    3
    5      0.695D-03      0.165D-03      -263.76994603    373.048123    0.82672    0.00000    0.00000    4
    6      0.259D-03      0.669D-04      -263.76995326    373.063121    0.82747    0.00000    0.00000    5
    7      0.859D-04      0.163D-04      -263.76995399    373.054660    0.82704    0.00000    0.00000    6
    8      0.281D-04      0.359D-05      -263.76995404    373.055972    0.82705    0.00000    0.00000    7
    9      0.768D-05      0.121D-05      -263.76995405    373.055768    0.82702    0.00000    0.00000    0

 Final occupancy:   8   5   2   1

 !RHF STATE 1.1 Energy               -263.769954045271
 Nuclear energy                        89.75795157
 One-electron energy                 -540.05578986
 Two-electron energy                  186.52788425
 Virial quotient                       -1.00183258
 !RHF STATE 1.1 Dipole moment           0.82702013     0.00000000     0.00000000
 Dipole moment /Debye                   2.10193783     0.00000000     0.00000000

 Orbital energies:

         1.1          2.1          3.1          4.1          5.1          6.1          7.1          8.1          9.1         10.1
    -20.645417   -20.569754   -11.454383    -1.523073    -1.355183    -0.793512    -0.706981    -0.587177     0.027841     0.057195

         1.2          2.2          3.2          4.2          5.2          6.2          7.2
    -20.645463    -1.470020    -0.735794    -0.536815    -0.512633     0.084618     0.149716

         1.3          2.3          3.3          4.3
     -0.719624    -0.707237     0.046154     0.082217

         1.4          2.4          3.4
     -0.536945     0.168913     0.264247


 **********************************************************************************************************************************
 DATASETS  * FILE   NREC   LENGTH (MB)   RECORD NAMES
              1      18        3.25       500      610      700      900      950      970     1000      129      960     1100   
                                          VAR    BASINP    GEOM    SYMINP    ZMAT    AOBASIS   BASIS     P2S    ABASIS      S 
                                         1400     1410     1200     1210     1080     1600     1650     1700   
                                           T        V       H0       H01     AOSYM     SMH    MOLCAS    OPER   

              2       3        0.67       700     1000     2100   
                                         GEOM     BASIS     RHF  

 PROGRAMS   *        TOTAL        HF       INT
 CPU TIMES  *         6.28      1.42      4.76
 REAL TIME  *         6.97 SEC
 DISK USED  *       908.84 MB      
 SF USED    *         0.06 MB      
 GA USED    *         0.00 MB       (max)       0.00 MB       (current)
 **********************************************************************************************************************************


1PROGRAM * CCSD (Closed-shell coupled cluster)     Authors: C. Hampel, H.-J. Werner, 1991, M. Deegan, P.J. Knowles, 1992

                                  CCSD-F12 implementation by  H.-J. Werner, 2007

                   Density fitting integral evaluation by F.R. Manby, 2003,2007, G. Knizia, 2010

 Basis set CC-PVTZ/JKFIT generated.      Number of basis functions:   376 
 Basis set AUG-CC-PVTZ/MP2FIT generated. Number of basis functions:   516 

 Convergence thresholds:  THRVAR = 1.00D-08  THRDEN = 1.00D-06

 CCSD(T)     terms to be evaluated (factor= 1.000)


 Number of core orbitals:           4 (   3   1   0   0 )
 Number of closed-shell orbitals:  12 (   5   4   2   1 )
 Number of external orbitals:     214 (  76  54  52  32 )

 Molecular orbitals read from record     2100.2  Type=RHF/CANONICAL (state 1.1)

 MP2-F12 correlation treatment (H.-J. Werner, 2006)
 --------------------------------------------------

 Using MP2-F12 with ansatz 3C(FIX)

 Using projected zeroth-order Hamiltonian (+Z)

 FOCKRIB=T FOCKRIC=T FOCKRIP=T CABSP=T CABSA=T CABSK=T CABSF=T GBC=F EBC=F DMAT=T NOFIK=T NOPAO=1 SOLVE=-1  USEPAO=0
 EXCH_A= T EXCH_B= F EXCH_C= F EXCH_P= F
 
 Geminal basis:    OPTFULL  GEM_TYPE=SLATER  BETA=1.0  NGEM=6

 Optimizing Gaussian exponents for each gem_beta

 Geminal optimization for beta= 1.0000
 Weight function:   m=0, omega= 1.4646

 Augmented Hessian optimization of geminal fit. Trust ratio= 0.40000
 Convergence reached after   2 iterations. Final gradient= 8.24D-16, Step= 4.32D-06, Delta= 1.28D-09
 
 Alpha:                 0.19532     0.81920     2.85917     9.50073    35.69989   197.79328
 Coeff:                 0.27070     0.30552     0.18297     0.10986     0.06810     0.04224
 

 Symmetry turned off. Reference energy:       -263.769954045271

 All pairs explicitly correlated. Number of r12-pairs:           78
 
 AO(A)-basis ORBITAL           loaded. Number of functions:     230
 RI(R)-basis CC-PVTZ/JKFIT     loaded. Number of functions:     376
 DF-basis CC-PVTZ/JKFIT        loaded. Number of functions:     376

 Screening thresholds:   THRAO=  1.00D-10  THRMO=  1.00D-09  THRPROD=  1.00D-09
                         THRSW=  1.00D-05  THROV=  1.00D-12  THRF12=   1.00D-08

 CPU time for Fock operators                      1.00 sec
 
 Construction of ABS:
 Smallest eigenvalue of S          2.57E-04  (threshold= 1.00E-08)
 Ratio eigmin/eigmax               1.83E-06  (threshold= 1.00E-09)
 Smallest eigenvalue of S kept     2.57E-04  (threshold= 2.57E-04, 0 functions deleted, 376 kept)
 
 Construction of CABS:
 Smallest eigenvalue of S          2.30E-08  (threshold= 1.00E-08)
 Ratio eigmin/eigmax               2.30E-08  (threshold= 1.00E-09)
 Smallest eigenvalue of S kept     2.30E-08  (threshold= 2.30E-08, 0 functions deleted, 376 kept)
 
 CPU time for CABS singles                        0.18 sec

 CABS-singles contribution of  -0.01592086 patched into reference energy.
 New reference energy        -263.78587490
 
 AO(A)-basis ORBITAL           loaded. Number of functions:     230
 RI(R)-basis CC-PVTZ/JKFIT     loaded. Number of functions:     376
 DF-basis AUG-CC-PVTZ/MP2FIT   loaded. Number of functions:     516

 Screening thresholds:   THRAO=  1.00D-10  THRMO=  1.00D-09  THRPROD=  1.00D-09
                         THRSW=  1.00D-05  THROV=  1.00D-12  THRF12=   1.00D-08

 CPU time for 3-index integral evaluation         2.41 sec
 CPU time for first  half transformation          0.23 sec (13578.5 MFLOP/sec)
 CPU time for second half transformation          0.03 sec ( 3836.5 MFLOP/sec)
 CPU time for sorting                             0.17 sec
 CPU time for fitting                             0.06 sec (23359.5 MFLOP/sec)
 CPU time for tilde quantities                    0.08 sec (23111.0 MFLOP/sec)
 CPU time for assembly                            0.86 sec (28713.5 MFLOP/sec)
 CPU time for tranop_f12                          1.01 sec (30315.7 MFLOP/sec)
 CPU time for f12 integrals (total)               7.00 sec
 F12-matrices built in  3 passes.
 F12-matrices built in  3 passes.
 F12-matrices built in  3 passes.
 F12-matrices built in  3 passes.
 FC-matrix built in  3 passes.
 CPU time for f12 matrices (total)                0.57 sec

 Diagonal F12 approximation with fixed coefficients:  TSING= 0.500,  TTRIP= 0.250 (scaled by -1/beta)

 DF-MP2-F12 energy corrections:
 ------------------------------
 Approx.                                    Singlet             Triplet             Total
 DF-MP2-F12/3*C(DX,FIX)                -0.097439156733     -0.016931947872     -0.114371104605
 DF-MP2-F12/3*C(FIX)                   -0.079857133884     -0.013394335853     -0.093251469736
 DF-MP2-F12/3C(FIX)                    -0.080218561042     -0.013417979222     -0.093636540264

 DF-MP2-F12 correlation energies:
 --------------------------------
 Approx.                                    Singlet             Triplet             Ecorr            Total Energy
 DF-MP2                                -0.537714255410     -0.343096974738     -0.880811230148   -264.666686131165
 DF-MP2-F12/3*C(DX,FIX)                -0.635153412143     -0.360028922610     -0.995182334753   -264.781057235771
 DF-MP2-F12/3*C(FIX)                   -0.617571389294     -0.356491310590     -0.974062699884   -264.759937600902
 DF-MP2-F12/3C(FIX)                    -0.617932816452     -0.356514953959     -0.974447770412   -264.760322671429

 SCS-DF-MP2 energies (F_SING= 1.20000  F_TRIP= 0.62222  F_PARALLEL= 0.33333):
 ----------------------------------------------------------------------------
 SCS-DF-MP2                            -0.858739668551   -264.644614569569
 SCS-DF-MP2-F12/3*C(DX,FIX)            -0.986202090862   -264.772076991880
 SCS-DF-MP2-F12/3*C(FIX)               -0.962902482631   -264.748777383649
 SCS-DF-MP2-F12/3C(FIX)                -0.963350906651   -264.749225807669

 Symmetry restored.
 Symmetry transformation completed.

 Number of N-1 electron functions:              12
 Number of N-2 electron functions:              78
 Number of singly external CSFs:               732
 Number of doubly external CSFs:            836016
 Total number of CSFs:                      836749

 Pair and operator lists are different

 Length of J-op  integral file:             462.26 MB
 Length of K-op  integral file:             502.03 MB
 Length of 3-ext integral record:             0.00 MB

 Memory could be reduced to 38.69 Mwords without degradation in triples

 Integral transformation finished. Total CPU:   1.53 sec, npass=  1  Memory used:   6.07 MW

 Reference energy:                   -263.78587490

 Adding F12 terms to K(Cij), methodcc=6,  factor=1.0

 ITER.      SQ.NORM     CORR.ENERGY   TOTAL ENERGY   ENERGY CHANGE        DEN1      VAR(S)    VAR(P)  DIIS     TIME
   1      1.20213368    -0.86276936  -264.64864426     0.01805808     0.04667552  0.72D-02  0.56D-02  1  1    11.68
   2      1.21644275    -0.85854955  -264.64442445     0.00421981    -0.02014527  0.87D-04  0.59D-03  2  2    12.69
   3      1.22180573    -0.85864728  -264.64452218    -0.00009773    -0.00236517  0.13D-03  0.32D-04  3  3    13.67
   4      1.22460925    -0.85851964  -264.64439454     0.00012764    -0.00141172  0.76D-05  0.41D-05  4  4    14.69
   5      1.22563972    -0.85848200  -264.64435690     0.00003764    -0.00036633  0.56D-06  0.29D-06  5  5    15.73
   6      1.22580198    -0.85845513  -264.64433003     0.00002687    -0.00000806  0.40D-07  0.24D-07  6  6    16.78
   7      1.22583136    -0.85845271  -264.64432761     0.00000242    -0.00000622  0.25D-08  0.40D-08  6  4    17.71
   8      1.22583167    -0.85845222  -264.64432712     0.00000049     0.00000194  0.39D-09  0.27D-09  6  1    18.71
   9      1.22583228    -0.85845228  -264.64432718    -0.00000007     0.00000056  0.26D-10  0.21D-10  6  2    19.74

 Norm of t1 vector:      0.10598352      S-energy:    -0.00000003      T1 diagnostic:  0.01529740
                                                                       D1 diagnostic:  0.04499771

 Adding energy correction from Wij-K(Fij), methodcc=6  factor=1.0
 
  CCSD correlation energy              -0.858452282014
  MP2-F12 correction (uncoupled)       -0.092479844110
  C*T doubles correction               -0.001474923197
  f12b correction                       0.015406151715


 Total CPU time for triples:     28.78 sec


 RESULTS
 =======

  Reference energy                   -263.769954045271
  F12 singles correction               -0.015920855746

 F12 singles corrections added to reference energy

  New reference energy               -263.785874901018

  F12a singlet correction              -0.080418330249
  F12a triplet correction              -0.013536437058
  F12a total correction                -0.093954767307

 F12a corrections for ansatz F12/3C(FIX) added to CCSD energy
 
  CCSD-F12a singlet pair energy        -0.641868066850
  CCSD-F12a triplet pair energy        -0.310538954286
  CCSD-F12a correlation energy         -0.952407049321

  Triples (T) contribution             -0.037643411676
  Total correlation energy             -0.990050460997

  CCSD-F12a total energy             -264.738281950338
  CCSD[T]-F12a energy                -264.778467546778
  CCSD-T-F12a energy                 -264.774988705740
 !CCSD(T)-F12a total energy          -264.775925362014

 F12b corrections for ansatz F12/3C(FIX) added to CCSD(T)-F12a energy

  CCSD-F12b singlet pair energy        -0.627685266471
  CCSD-F12b triplet pair energy        -0.309315602950
  CCSD-F12b correlation energy         -0.937000897606

  Triples (T) contribution             -0.037643411676
  Total correlation energy             -0.974644309281

  CCSD-F12b total energy             -264.722875798623
  CCSD[T]-F12b energy                -264.763061395063
  CCSD-T-F12b energy                 -264.759582554024
 !CCSD(T)-F12b total energy          -264.760519210299

 Timing summary (sec):

 STEP                 CPU(USER)    SYS     CPU(TOT)    WALL
 Transformation          1.54      0.24      1.78      1.78
 CCSD iterations         9.04      0.71      9.75      9.75
 Triples                28.78      0.85     29.63     29.61
 MP2-F12                 9.17      1.18     10.35     10.35
 F12b energy             0.64      0.01      0.65      0.66

 Program statistics:

 Available memory in ccsd:                99998934
 Min. memory needed in ccsd:               2244783
 Max. memory used in ccsd:                 3005571
 Max. memory used in cckext:               2769663 (10 integral passes)



 **********************************************************************************************************************************
 DATASETS  * FILE   NREC   LENGTH (MB)   RECORD NAMES
              1      20      137.19       500      610      700      900      950      970     1000      129      960     1100   
                                          VAR    BASINP    GEOM    SYMINP    ZMAT    AOBASIS   BASIS     P2S    ABASIS      S 
                                         1400     1410     1200     1210     1080     1600     1650     1700      960(1)  1380   
                                           T        V       H0       H01     AOSYM     SMH    MOLCAS    OPER    ABASIS    JKOP   

              2       5        0.97       700     1000     2100     7360     7350   
                                         GEOM     BASIS     RHF    F12ABS    EF12   

 PROGRAMS   *        TOTAL   CCSD(T)        HF       INT
 CPU TIMES  *        55.66     49.37      1.42      4.76
 REAL TIME  *        59.38 SEC
 DISK USED  *         1.13 GB      
 SF USED    *         1.34 GB      
 GA USED    *         2.40 MB       (max)       0.00 MB       (current)
 **********************************************************************************************************************************

     CCSD(T)-F12        HF-SCF  
   -264.76051921   -263.76995405
 **********************************************************************************************************************************
 Variable memory released
